cn1235: starting in /dev/shm/ORUNDIR_304550 /opt/software/pc2/ORCA/orca_6_1_0_linux_x86-64_shared_openmpi418_avx2/orca C10H6.inp
mpirun is: /opt/software/pc2/ORCA/orca_6_1_0_linux_x86-64_shared_openmpi418_avx2/mpirun
Directory contents is:
total 4
-rw-r--r-- 1 xinwu user 1284 Nov  7 13:12 C10H6.inp

                                 *****************
                                 * O   R   C   A *
                                 *****************

                                            #,                                       
                                            ###                                      
                                            ####                                     
                                            #####                                    
                                            ######                                   
                                           ########,                                 
                                     ,,################,,,,,                         
                               ,,#################################,,                 
                          ,,##########################################,,             
                       ,#########################################, ''#####,          
                    ,#############################################,,   '####,        
                  ,##################################################,,,,####,       
                ,###########''''           ''''###############################       
              ,#####''   ,,,,##########,,,,          '''####'''          '####       
            ,##' ,,,,###########################,,,                        '##       
           ' ,,###''''                  '''############,,,                           
         ,,##''                                '''############,,,,        ,,,,,,###''
      ,#''                                            '''#######################'''  
     '                                                          ''''####''''         
             ,#######,   #######,   ,#######,      ##                                
            ,#'     '#,  ##    ##  ,#'     '#,    #''#        ,####,    ,#,          
            ##       ##  ##   ,#'  ##            #'  '#       #'       ,# #          
            ##       ##  #######   ##           ,######,      #####,      #          
            '#,     ,#'  ##    ##  '#,     ,#' ,#      #,     #,   #      #          
             '#######'   ##     ##  '#######'  #'      '#     '####' #    #          



                #########################################################
                #                        -***-                          #
                #          Department of theory and spectroscopy        #
                #                                                       #
                #                      Frank Neese                      #
                #                                                       #
                #     Directorship, Architecture, Infrastructure        #
                #                    SHARK, DRIVERS                     #
                #        Core code/Algorithms in most modules           #
                #                                                       #
                #        Max Planck Institute fuer Kohlenforschung      #
                #                Kaiser Wilhelm Platz 1                 #
                #                 D-45470 Muelheim/Ruhr                 #
                #                      Germany                          #
                #                                                       #
                #                  All rights reserved                  #
                #                        -***-                          #
                #########################################################


                         Program Version 6.1.0  -  RELEASE   -
                                (GIT: $679e74b$)
                          ($2025-06-10 18:02:51 +0200$)


 With contributions from (in alphabetic order):
[Max-Planck-Institut fuer Kohlenforschung]                               
  Daniel Aravena         : Magnetic Suceptibility                        
  Michael Atanasov       : Ab Initio Ligand Field Theory (pilot matlab implementation)
  Alexander A. Auer      : GIAO ZORA, VPT2 properties, NMR spectrum      
  Ute Becker             : All parallelization in ORCA, NUMFREQ, NUMCALC 
  Giovanni Bistoni       : ED, misc. LED, open-shell LED, HFLD           
  Dmytro Bykov           : pre 5.0 version of the SCF Hessian            
  Marcos Casanova-Páez   : Triplet and SCS-CIS(D). UHF-(DLPNO)-IP/EA/STEOM-CCSD. UHF-CVS-IP/STEOM-CCSD   
  Vijay G. Chilkuri      : MRCI spin determinant printing, contributions to CSF-ICE 
  Pauline Colinet        : FMM embedding                                 
  Dipayan Datta          : RHF DLPNO-CCSD density                        
  Achintya Kumar Dutta   : EOM-CC, STEOM-CC                              
  Nicolas Foglia         : Exact transition moments, OPA infrastructure, MCD improvements    
  Dmitry Ganyushin       : Spin-Orbit,Spin-Spin,Magnetic field MRCI      
  Miquel Garcia-Rates    : C-PCM and meta-GGA Hessian, CCSD/C-PCM, Gaussian charge scheme 
  Tiago L. C. Gouveia    : GS-ROHF, GS-ROCIS                             
  Yang Guo               : DLPNO-NEVPT2, F12-NEVPT2, CIM, IAO-localization        
  Andreas Hansen         : Spin unrestricted coupled pair/coupled cluster methods 
  Ingolf Harden          : AUTO-CI MPn and infrastructure                
  Benjamin Helmich-Paris : MC-RPA, TRAH-(SCF,CASSCF), AVAS, COSX integrals, SCF dyn. polar., MC-PDFT, srDFT 
  Lee Huntington         : MR-EOM, pCC                                   
  Robert Izsak           : Overlap fitted RIJCOSX, COSX-SCS-MP3, EOM     
  Riya Kayal             : Wick's Theorem for AUTO-CI, AUTO-CI UHF-CCSDT 
  Emily Kempfer          : AUTO-CI RHF CISDT and CCSDT, approximate NEVPT4
  Christian Kollmar      : KDIIS, OOCD, Brueckner-CCSD(T), CCSD density, CASPT2, CASPT2-K, improved NEVPT2 
  Axel Koslowski         : Symmetry handling                             
  Simone Kossmann        : meta-GGA functionals, TD-DFT gradient, OOMP2, (MP2 Hessian; deprecated post 5.0) 
  Lucas Lang             : DCDCAS, Hyperfine gauge corrections, ICE-SOC+SSC
  Marvin Lechner         : AUTO-CI (C++ implementation), FIC-MRCC        
  Spencer Leger          : CASSCF response                               
  Dagmar Lenk            : GEPOL surface, SMD, ORCA-2-JSON               
  Dimitrios Liakos       : Extrapolation schemes; Compound Job, Property file
  Dimitrios Manganas     : Further ROCIS development; embedding schemes. LFT, Crystal Embedding 
  Dimitrios Pantazis     : SARC Basis sets                               
  Anastasios Papadopoulos: AUTO-CI, single reference methods and gradients 
  Taras Petrenko         : pre 6.0 DFT Hessian and TD-DFT gradient,  ECA, NRVS 
  Petra Pikulova         : Analytic Raman intensities                    
  Peter Pinski           : DLPNO-MP2, DLPNO-MP2 Gradient                 
  Shashank Vittal Rao    : ES-AILFT, MagRelax                            
  Christoph Reimann      : Effective Core Potentials                     
  Marius Retegan         : Local ZFS, SOC                                
  Christoph Riplinger    : Optimizer, TS searches, QM/MM, DLPNO-CCSD(T), (RO)-DLPNO pert. Triples 
  Michael Roemelt        : Original ROCIS implementation, recursive CI coupling coefficients
  Masaaki Saitow         : Open-shell DLPNO-CCSD energy and density      
  Barbara Sandhoefer     : DKH picture change effects                    
  Yorick L. A. Schmerwitz: GMF and freeze-and-release deltaSCF, NEB S-IDPP initial path                    
  Kantharuban Sivalingam : CASSCF convergence/infrastructure, NEVPT2, NEVPT3, NEVPT4(SD), FIC-MRCI and CEPA variants
  Bernardo de Souza      : ESD, SOC TD-DFT                               
  Georgi L. Stoychev     : AutoAux, RI-MP2 NMR, DLPNO-MP2 response, X2C  
  Van Anh Tran           : RI-MP2 g-tensors                              
  Willem Van den Heuvel  : Paramagnetic NMR                              
  Zikuan Wang            : NOTCH, Electric field optimization            
  Frank Wennmohs         : Technical directorship and infrastructure     
  Hang Xu                : AUTO-CI-Response properties                   
                                                                         
[FACCTs GmbH]                                                            
  Markus Bursch, Nicolas Foglia, Miquel Garcia-Rates, Ingolf Harden, Hagen Neugebauer, Anastasios Papadopoulos, 
  Christoph Riplinger, Bernardo de Souza, Georgi L. Stoychev                                                    
                                                                 
  APM, various basis sets, CI-OPT, improved COSX, DLPNO-Multilevel,           
  DOCKER, DRACO, updates on ESD, Fragmentator, GOAT, IRC, LR-CPCM, L-BFGS, MBIS, meta-GGA TD-DFT gradient, ML-optimized integration grids, 
  MM, NACMEs, nearIR, NEB, NEB-TS, NL-DFT gradient (VV10), 2- and 3-layer-ONIOM, interface openCOSMO-RS, QMMM,   
  Crystal-QMMM, RESP, rigid body optimization, SF, symmetry and pop. for TD-DFT, various functionals, SOLVATOR                                   
                                                                         
[Other institutions]                                                     
  V. Asgeirsson          : NEB                                           
  Christoph Bannwarth    : sTDA-DFT, sTD-DFT, PBEh-3c, B97-3c, D3        
  Giovanni Bistoni       : ETS/NOCV, ADLD/ADEX, COVALED                  
  Martin Brehm           : Molecular dynamics                            
  Ronald Cardenas        : ETS/NOCV                                      
  Martina Colucci        : COVALED                                       
  Sebastian Ehlert       : rSCAN, r2SCAN, r2SCAN-3c, D4, dhf basis sets  
  Marvin Friede          : D4 for Fr, Ra, Ac-Lr                          
  Lars Goerigk           : TD-DFT with DH, B97 family of functionals     
  Stefan Grimme          : VdW corrections, initial TS optimization, DFT functionals, gCP, sTDA/sTD-DF 
  Waldemar Hujo          : DFT-NL                                        
  H. Jonsson             : NEB                                           
  Holger Kruse           : gCP                                           
  Marcel Mueller         : wB97X-3c, vDZP basis set                      
  Hagen Neugebauer       : wr2SCAN, Native XTB                           
  Gianluca Regni         : ADLD/ADEX                                     
  Tobias Risthaus        : pre 6.0 range-separated hybrid DFT and stability analysis
  Lukas Wittmann         : regularized MP2, r2SCAN double-hybrids, wr2SCAN        
                                                                         
We gratefully acknowledge several colleagues who have allowed us to      
interface, adapt or use parts of their codes:                            
  Ed Valeev, F. Pavosevic, A. Kumar             : LibInt (2-el integral package), F12 methods 
  Garnet Chan, S. Sharma, J. Yang, R. Olivares  : DMRG                   
  Ulf Ekstrom                                   : XCFun DFT Library      
  Mihaly Kallay                                 : mrcc  (arbitrary order and MRCC methods)
  Frank Weinhold                                : gennbo (NPA and NBO analysis)           
  Simon Mueller                                 : openCOSMO-RS                            
  Christopher J. Cramer and Donald G. Truhlar   : smd solvation model                     
  S Lehtola, MJT Oliveira, MAL Marques          : LibXC Library                           
  Liviu Ungur et al                             : ANISO software                          


 Your calculation uses the libint2 library for the computation of 2-el integrals
 For citations please refer to: http://libint.valeyev.net

 Your ORCA version has been built with support for libXC version: 7.0.0
 For citations please refer to: https://libxc.gitlab.io

 This ORCA versions uses:
   CBLAS   interface :  Fast vector & matrix operations
   LAPACKE interface :  Fast linear algebra routines
   SCALAPACK package :  Parallel linear algebra routines
   Shared memory     :  Shared parallel matrices
   BLAS/LAPACK       :  OpenBLAS 0.3.29  USE64BITINT DYNAMIC_ARCH NO_AFFINITY Cooperlake SINGLE_THREADED
        Core in use  :  Cooperlake
   Copyright (c) 2011-2014, The OpenBLAS Project


  ***********************************
  * Starting time: Fri Nov  7 13:12:30 2025
  * Host name:     cn1235
  * Process ID:    131015
  * Working dir.:  /dev/shm/ORUNDIR_304550
  ***********************************

NOTE: MaxCore=3500 MB was set to SCF,MP2,MDCI,CIPSI,MRCI,RASCI and CIS
      => If you want to overwrite this, your respective input block should be placed after the MaxCore statement
================================================================================

----- Orbital basis set information -----
Your calculation utilizes the basis: def2-TZVP
   F. Weigend and R. Ahlrichs, Phys. Chem. Chem. Phys. 7, 3297 (2005).

----- AuxC basis set information -----
Your calculation utilizes the auxiliary basis: def2-TZVP/C
  H-La, Hf-Rn : A. Hellweg, C. Hattig, S. Hofener and W. Klopper, Theor. Chem. Acc. 117, 587 (2007).
        Ce-Lu : J. Chmela and M. E. Harding, Mol. Phys. (2018).

================================================================================
                                        WARNINGS
                       Please study these warnings very carefully!
================================================================================


================================================================================
                                       INPUT FILE
================================================================================
NAME = C10H6.inp
|  1> ! HF def2-TZVP def2-TZVP/C TightSCF
|  2> 
|  3> %pal nprocs 192 end
|  4> 
|  5> %maxcore 3500
|  6> 
|  7> *xyz 0 1
|  8>   C          -4.27618844408315     -1.58032440396899      0.00005070070495
|  9>   C          -3.34005683321128     -0.59584132236662      0.00006444386820
| 10>   C          -1.95210407783235     -0.77060865717285      0.00003831960105
| 11>   C          -3.86217366608977     -2.94329564853906      0.00000509552673
| 12>   C          -2.51634948899400     -3.21163359254876     -0.00000919099687
| 13>   C          -1.58244046595247     -2.14469616532146      0.00000031880442
| 14>   C          -0.83919744716565      0.07696362908260      0.00003881218711
| 15>   C           0.46452064090405     -0.30493582728661      0.00000531002164
| 16>   C          -0.23926938339869     -2.59903461086858     -0.00003638832891
| 17>   C           0.79025094019273     -1.69165677621172     -0.00003787855029
| 18>   H          -1.81673421307623     -3.84435222983868     -0.00004321961644
| 19>   H          -0.24242044715056     -3.66653818011380     -0.00004337035361
| 20>   H           1.25868166028411      0.43175218286707      0.00001039634415
| 21>   H           1.82449823089166     -2.01050257282053     -0.00005871686593
| 22>   H          -4.59682353508089     -3.73804232947048     -0.00001526730299
| 23>   H          -5.33277629951192     -1.34153120324475      0.00005835312942
| 24> *
| 25> 
| 26>                          ****END OF INPUT****
================================================================================

                       ****************************
                       * Single Point Calculation *
                       ****************************

---------------------------------
CARTESIAN COORDINATES (ANGSTROEM)
---------------------------------
  C     -4.276188   -1.580324    0.000051
  C     -3.340057   -0.595841    0.000064
  C     -1.952104   -0.770609    0.000038
  C     -3.862174   -2.943296    0.000005
  C     -2.516349   -3.211634   -0.000009
  C     -1.582440   -2.144696    0.000000
  C     -0.839197    0.076964    0.000039
  C      0.464521   -0.304936    0.000005
  C     -0.239269   -2.599035   -0.000036
  C      0.790251   -1.691657   -0.000038
  H     -1.816734   -3.844352   -0.000043
  H     -0.242420   -3.666538   -0.000043
  H      1.258682    0.431752    0.000010
  H      1.824498   -2.010503   -0.000059
  H     -4.596824   -3.738042   -0.000015
  H     -5.332776   -1.341531    0.000058

----------------------------
CARTESIAN COORDINATES (A.U.)
----------------------------
  NO LB      ZA    FRAG     MASS         X           Y           Z
   0 C     6.0000    0    12.011   -8.080825   -2.986380    0.000096
   1 C     6.0000    0    12.011   -6.311793   -1.125977    0.000122
   2 C     6.0000    0    12.011   -3.688942   -1.456239    0.000072
   3 C     6.0000    0    12.011   -7.298451   -5.562023    0.000010
   4 C     6.0000    0    12.011   -4.755211   -6.069108   -0.000017
   5 C     6.0000    0    12.011   -2.990379   -4.052888    0.000001
   6 C     6.0000    0    12.011   -1.585853    0.145440    0.000073
   7 C     6.0000    0    12.011    0.877817   -0.576245    0.000010
   8 C     6.0000    0    12.011   -0.452154   -4.911464   -0.000069
   9 C     6.0000    0    12.011    1.493358   -3.196768   -0.000072
  10 H     1.0000    0     1.008   -3.433130   -7.264773   -0.000082
  11 H     1.0000    0     1.008   -0.458108   -6.928753   -0.000082
  12 H     1.0000    0     1.008    2.378564    0.815893    0.000020
  13 H     1.0000    0     1.008    3.447802   -3.799299   -0.000111
  14 H     1.0000    0     1.008   -8.686738   -7.063876   -0.000029
  15 H     1.0000    0     1.008  -10.077487   -2.535127    0.000110

--------------------------------
INTERNAL COORDINATES (ANGSTROEM)
--------------------------------
 C      0   0   0     0.000000000000     0.00000000     0.00000000
 C      1   0   0     1.358509967215     0.00000000     0.00000000
 C      2   1   0     1.398912603833   126.38112123     0.00000000
 C      1   2   3     1.424464408822   119.54548585     0.00000000
 C      4   1   2     1.372314821043   118.17270987     0.00000000
 C      5   4   1     1.417935660398   119.92014810     0.00000000
 C      3   2   1     1.398906697750   135.53090632   179.99961053
 C      7   3   2     1.358502134359   126.38072443   180.00022196
 C      6   5   4     1.417932290858   112.50770527   180.00085544
 C      9   6   5     1.372314334078   119.91982185   179.99975124
 H      5   4   1     0.943289144128   149.15049294   180.00127069
 H      9   6   5     1.067508219923   108.51939647     0.00000000
 H      8   7   3     1.083236331108   120.82311441   180.00009030
 H     10   9   6     1.082280047292   121.47445305   179.99957986
 H      4   1   2     1.082281256086   120.35361839   180.00054852
 H      1   2   3     1.083235934139   120.82275254   180.00093889

---------------------------
INTERNAL COORDINATES (A.U.)
---------------------------
 C      0   0   0     0.000000000000     0.00000000     0.00000000
 C      1   0   0     2.567211788240     0.00000000     0.00000000
 C      2   1   0     2.643561706534   126.38112123     0.00000000
 C      1   2   3     2.691847620192   119.54548585     0.00000000
 C      4   1   2     2.593299181293   118.17270987     0.00000000
 C      5   4   1     2.679510073672   119.92014810     0.00000000
 C      3   2   1     2.643550545656   135.53090632   179.99961053
 C      7   3   2     2.567196986286   126.38072443   180.00022196
 C      6   5   4     2.679503706166   112.50770527   180.00085544
 C      9   6   5     2.593298261062   119.91982185   179.99975124
 H      5   4   1     1.782558147503   149.15049294   180.00127069
 H      9   6   5     2.017298181364   108.51939647     0.00000000
 H      8   7   3     2.047020004108   120.82311441   180.00009030
 H     10   9   6     2.045212889590   121.47445305   179.99957986
 H      4   1   2     2.045215173879   120.35361839   180.00054852
 H      1   2   3     2.047019253945   120.82275254   180.00093889

---------------------
BASIS SET INFORMATION
---------------------
There are 2 groups of distinct atoms

 Group   1 Type C   : 11s6p2d1f contracted to 5s3p2d1f pattern {62111/411/11/1}
 Group   2 Type H   : 5s1p contracted to 3s1p pattern {311/1}

Atom   0C    basis set group =>   1
Atom   1C    basis set group =>   1
Atom   2C    basis set group =>   1
Atom   3C    basis set group =>   1
Atom   4C    basis set group =>   1
Atom   5C    basis set group =>   1
Atom   6C    basis set group =>   1
Atom   7C    basis set group =>   1
Atom   8C    basis set group =>   1
Atom   9C    basis set group =>   1
Atom  10H    basis set group =>   2
Atom  11H    basis set group =>   2
Atom  12H    basis set group =>   2
Atom  13H    basis set group =>   2
Atom  14H    basis set group =>   2
Atom  15H    basis set group =>   2
---------------------------------
AUXILIARY/C BASIS SET INFORMATION
---------------------------------
There are 2 groups of distinct atoms

 Group   1 Type C   : 8s6p5d3f1g contracted to 8s6p4d3f1g pattern {11111111/111111/2111/111/1}
 Group   2 Type H   : 4s3p2d contracted to 4s2p1d pattern {1111/21/2}

Atom   0C    basis set group =>   1
Atom   1C    basis set group =>   1
Atom   2C    basis set group =>   1
Atom   3C    basis set group =>   1
Atom   4C    basis set group =>   1
Atom   5C    basis set group =>   1
Atom   6C    basis set group =>   1
Atom   7C    basis set group =>   1
Atom   8C    basis set group =>   1
Atom   9C    basis set group =>   1
Atom  10H    basis set group =>   2
Atom  11H    basis set group =>   2
Atom  12H    basis set group =>   2
Atom  13H    basis set group =>   2
Atom  14H    basis set group =>   2
Atom  15H    basis set group =>   2


           ************************************************************
           *        Program running with 192 parallel MPI-processes   *
           *              working on a common directory               *
           ************************************************************
------------------------------------------------------------------------------
                             ORCA STARTUP CALCULATIONS
------------------------------------------------------------------------------
------------------------------------------------------------------------------
                   ___                                                        
                  /   \      - P O W E R E D   B Y -                         
                 /     \                                                     
                 |  |  |   _    _      __       _____    __    __             
                 |  |  |  | |  | |    /  \     |  _  \  |  |  /  |          
                  \  \/   | |  | |   /    \    | | | |  |  | /  /          
                 / \  \   | |__| |  /  /\  \   | |_| |  |  |/  /          
                |  |  |   |  __  | /  /__\  \  |    /   |      \           
                |  |  |   | |  | | |   __   |  |    \   |  |\   \          
                \     /   | |  | | |  |  |  |  | |\  \  |  | \   \       
                 \___/    |_|  |_| |__|  |__|  |_| \__\ |__|  \__/        
                                                                              
                      - O R C A' S   B I G   F R I E N D -                    
                                      &                                       
                       - I N T E G R A L  F E E D E R -                       
                                                                              
 v1 FN, 2020, v2 2021, v3 2022-2024                                           
------------------------------------------------------------------------------


----------------------
SHARK INTEGRAL PACKAGE
----------------------

Number of atoms                             ...     16
Number of basis functions                   ...    346
Number of shells                            ...    134
Maximum angular momentum                    ...      3
Integral batch strategy                     ... SHARK/LIBINT Hybrid
RI-J (if used) integral strategy            ... SPLIT-RIJ (Revised 2003 algorithm where possible)
Printlevel                                  ...      1
Contraction scheme used                     ... SEGMENTED contraction
Prescreening option                         ... SCHWARTZ
   Thresh                                   ... 2.500e-11
   Tcut                                     ... 2.500e-12
   Tpresel                                  ... 2.500e-12 
Coulomb Range Separation                    ... NOT USED
Exchange Range Separation                   ... NOT USED
Multipole approximations                    ... NOT USED
Finite Nucleus Model                        ... NOT USED
CABS basis                                  ... NOT available
Auxiliary Coulomb fitting basis             ... NOT available
Auxiliary J/K fitting basis                 ... NOT available
Auxiliary Correlation fitting basis         ... AVAILABLE
   # of basis functions in Aux-C            ...    850
   # of shells in Aux-C                     ...    262
   Maximum angular momentum in Aux-C        ...      4
Auxiliary 'external' fitting basis          ... NOT available

Checking pre-screening integrals            ... done (  0.0 sec) Dimension = 134
   => SHARK Basis and OBASIS are compatible. Storing Pre-screening
Shell pair information
Shell pair cut-off parameter TPreSel        ...   2.5e-12
Total number of shell pairs                 ...      9045
Shell pairs after pre-screening             ...      8254
Total number of primitive shell pairs       ...     28204
Primitive shell pairs kept                  ...     19119
          la=0 lb=0:   2005 shell pairs
          la=1 lb=0:   2251 shell pairs
          la=1 lb=1:    642 shell pairs
          la=2 lb=0:   1256 shell pairs
          la=2 lb=1:    695 shell pairs
          la=2 lb=2:    202 shell pairs
          la=3 lb=0:    614 shell pairs
          la=3 lb=1:    342 shell pairs
          la=3 lb=2:    192 shell pairs
          la=3 lb=3:     55 shell pairs

Checking whether 4 symmetric matrices of dimension 346 fit in memory
:Max Core in MB      =   3500.00
 MB in use           =     13.83
 MB left             =   3486.17
 MB needed           =      1.83
 Data fit in memory  = YES
Calculating RI/C V-Matrix + Cholesky decomp.... done (  0.1 sec)
Calculating Nuclear repulsion               ... done (  0.0 sec) ENN=    436.701954735011 Eh

Diagonalization of the overlap matrix:
Smallest eigenvalue                        ... 1.339e-05
Time for diagonalization                   ...    0.009 sec
Threshold for overlap eigenvalues          ... 1.000e-07
Number of eigenvalues below threshold      ... 0
Time for construction of square roots      ...    0.006 sec
Total time needed                          ...    0.017 sec

-------------------
DFT GRID GENERATION
-------------------

General Integration Accuracy     IntAcc      ... 4.388
Radial Grid Type                 RadialGrid  ... OptM3 with GC (2021)
Angular Grid (max. ang.)         AngularGrid ... 4 (Lebedev-302)
Angular grid pruning method      GridPruning ... 4 (adaptive)
Weight generation scheme         WeightScheme... mBecke (2022)
Basis function cutoff            BFCut       ... 1.0000e-11
Integration weight cutoff        WCut        ... 1.0000e-14
Partially contracted basis set               ... off
Rotationally invariant grid construction     ... off
Angular grids for H and He will be reduced by one unit

Total number of grid points                  ...    79235
Total number of batches                      ...     1246
Average number of points per batch           ...       63
Average number of grid points per atom       ...     4952
Grids setup in   0.4 sec
Initializing property integral containers    ... done (  0.0 sec)

SHARK setup successfully completed in   0.7 seconds

Maximum memory used throughout the entire STARTUP-calculation: 27.0 MB


           ************************************************************
           *        Program running with 192 parallel MPI-processes   *
           *              working on a common directory               *
           ************************************************************
-------------------------------------------------------------------------------
                                 ORCA GUESS
                   Start orbitals & Density for SCF / CASSCF
-------------------------------------------------------------------------------

------------
SCF SETTINGS
------------
Hamiltonian:
 Ab initio Hamiltonian  Method          .... Hartree-Fock(GTOs)


General Settings:
 Integral files         IntName         .... C10H6
 Hartree-Fock type      HFTyp           .... RHF
 Total Charge           Charge          ....    0
 Multiplicity           Mult            ....    1
 Number of Electrons    NEL             ....   66
 Basis Dimension        Dim             ....  346
 Nuclear Repulsion      ENuc            ....    436.7019547350 Eh

Convergence Acceleration:
 AO-DIIS                CNVDIIS         .... on
   Start iteration      DIISMaxIt       ....    12
   Startup error        DIISStart       ....  0.200000
   # of expansion vecs  DIISMaxEq       ....     5
   Bias factor          DIISBfac        ....   1.050
   Max. coefficient     DIISMaxC        ....  10.000
 MO-DIIS                CNVKDIIS        .... off
 Trust-Rad. Augm. Hess. CNVTRAH         .... auto
   Auto Start mean grad. ratio tolernc. ....  1.125000
   Auto Start start iteration           ....    50
   Auto Start num. interpolation iter.  ....    10
   Max. Number of Micro iterations      ....    24
   Max. Number of Macro iterations      .... Maxiter - #DIIS iter
   Number of Davidson start vectors     ....     2
   Converg. threshold    (grad. norm)   ....   1.000e-05
   Grad. Scal. Fac. for Micro threshold ....   0.100
   Minimum threshold for Micro iter.    ....   1.000e-02
   NR start threshold (gradient norm)   ....   1.000e-04
   Initial trust radius                 ....   0.400
   Minimum AH scaling param. (alpha)    ....   1.000
   Maximum AH scaling param. (alpha)    .... 1000.000
   Quad. conv. algorithm                .... NR
   White noise on init. David. guess    .... on
   Maximum white noise                  ....   0.010
   Pseudo random numbers                .... off
   Inactive MOs                         .... canonical
   Orbital update algorithm             .... Taylor
   Preconditioner                       .... Diag
   Full preconditioner red. dimension   ....   250
 SOSCF                 CNVSOSCF           .... on
   Start iteration     SOSCFMaxIt         ....   150
   Startup grad/error  SOSCFStart         ....  0.003300
   Hessian update      SOSCFHessUp        .... L-BFGS
   Autom. constraints  SOSCFAutoConstrain .... off
 Level Shifting         CNVShift        .... on
   Level shift para.    LevelShift      ....    0.2500
   Turn off err/grad.   ShiftErr        ....    0.0010
 Zerner damping         CNVZerner       .... off
 Static damping         CNVDamp         .... on
   Fraction old density DampFac         ....    0.7000
   Max. Damping (<1)    DampMax         ....    0.9800
   Min. Damping (>=0)   DampMin         ....    0.0000
   Turn off err/grad.   DampErr         ....    0.1000

SCF Procedure:
 Maximum # iterations   MaxIter         ....   125
 SCF integral mode      SCFMode         .... Direct
   Integral package                     .... SHARK and LIBINT hybrid scheme
 Reset frequency        DirectResetFreq ....    20
 Integral Threshold     Thresh          ....  2.500e-11 Eh
 Primitive CutOff       TCut            ....  2.500e-12 Eh

Convergence Tolerance:
 Convergence Check Mode ConvCheckMode   .... Total+1el-Energy
 Convergence forced     ConvForced      .... 0
 Energy Change          TolE            ....  1.000e-08 Eh
 1-El. energy change                    ....  1.000e-05 Eh
 Orbital Gradient       TolG            ....  1.000e-05
 Orbital Rotation angle TolX            ....  1.000e-05
 DIIS Error             TolErr          ....  5.000e-07

------------------------------
INITIAL GUESS: MODEL POTENTIAL
------------------------------
Loading Hartree-Fock densities                     ... done
Calculating cut-offs                               ... done
Initializing the effective Hamiltonian             ... done
Setting up the integral package (SHARK)            ... done
Starting the Coulomb interaction                   ... done (   0.1 sec)
Making the grid                                    ... done (   0.1 sec)
Mapping shells                                     ... done
Starting the XC term evaluation                    ... done (   0.0 sec)
Transforming the Hamiltonian                       ... done (   0.0 sec)
Diagonalizing the Hamiltonian                      ... done (   0.0 sec)
Back transforming the eigenvectors                 ... done (   0.0 sec)
Now organizing SCF variables                       ... done
                      ------------------
                      INITIAL GUESS DONE (   0.3 sec)
                      ------------------
             **** ENERGY FILE WAS UPDATED (C10H6.en.tmp) ****
Finished Guess after   7.2 sec
Maximum memory used throughout the entire GUESS-calculation: 18.9 MB


           ************************************************************
           *        Program running with 192 parallel MPI-processes   *
           *              working on a common directory               *
           ************************************************************

-------------------------------------------------------------------------------------------
                                      ORCA LEAN-SCF
                              memory conserving SCF solver
-------------------------------------------------------------------------------------------

----------------------------------------D-I-I-S--------------------------------------------
Iteration    Energy (Eh)           Delta-E    RMSDP     MaxDP     DIISErr   Damp  Time(sec)
-------------------------------------------------------------------------------------------
               ***  Starting incremental Fock matrix formation  ***
    1    -381.6128701856552539     0.00e+00  2.14e-02  3.19e-02  2.28e-01  0.700   0.5
    2    -381.7335323128124287    -1.21e-01  1.71e-02  2.29e-02  1.66e-01  0.700   0.3
                               ***Turning on AO-DIIS***
    3    -381.8107530338181164    -7.72e-02  1.25e-02  1.88e-02  1.21e-01  0.700   0.3
    4    -381.8613621601041928    -5.06e-02  9.32e-03  1.38e-02  8.54e-02  0.700   0.3
    5    -381.8961480086168763    -3.48e-02  2.32e-02  3.32e-02  6.01e-02  0.000   0.3
                              *** Initializing SOSCF ***
---------------------------------------S-O-S-C-F--------------------------------------
Iteration    Energy (Eh)           Delta-E    RMSDP     MaxDP     MaxGrad    Time(sec)
--------------------------------------------------------------------------------------
    6    -381.9775232573202288    -8.14e-02  2.25e-03  3.59e-03  3.15e-03     0.3
               *** Restarting incremental Fock matrix formation ***
    7    -381.9777716822781599    -2.48e-04  1.51e-03  3.16e-03  1.78e-03     0.3
    8    -381.9778671581740923    -9.55e-05  1.38e-03  3.29e-03  8.26e-04     0.3
    9    -381.9779048413141140    -3.77e-05  3.74e-04  1.29e-03  4.20e-04     0.3
   10    -381.9779070306199742    -2.19e-06  1.79e-04  2.70e-04  2.57e-04     0.3
   11    -381.9779085003529531    -1.47e-06  1.21e-04  1.91e-04  1.20e-04     0.3
   12    -381.9779088578353026    -3.57e-07  5.03e-05  1.55e-04  1.09e-04     0.3
   13    -381.9779090703619318    -2.13e-07  2.60e-05  3.37e-05  1.98e-05     0.3
   14    -381.9779090940166384    -2.37e-08  1.83e-05  2.78e-05  1.05e-05     0.3
   15    -381.9779091023571596    -8.34e-09  4.71e-06  6.28e-06  4.97e-06     0.3
                 **** Energy Check signals convergence ****

               *****************************************************
               *                     SUCCESS                       *
               *           SCF CONVERGED AFTER  15 CYCLES          *
               *****************************************************

             **** ENERGY FILE WAS UPDATED (C10H6.en.tmp) ****

----------------
TOTAL SCF ENERGY
----------------

Total Energy       :       -381.97790910522718 Eh          -10394.14733 eV

Components:
Nuclear Repulsion  :        436.70195473501116 Eh           11883.26432 eV
Electronic Energy  :       -818.67986384023834 Eh          -22277.41166 eV
One Electron Energy:      -1380.42083877392793 Eh          -37563.16070 eV
Two Electron Energy:        561.74097493368959 Eh           15285.74904 eV

Virial components:
Potential Energy   :       -763.89279024656412 Eh          -20786.57959 eV
Kinetic Energy     :        381.91488114133699 Eh           10392.43226 eV
Virial Ratio       :          2.00016503144287

---------------
SCF CONVERGENCE
---------------

  Last Energy change         ...    8.3405e-09  Tolerance :   1.0000e-08
  Last MAX-Density change    ...    6.2802e-06  Tolerance :   1.0000e-07
  Last RMS-Density change    ...    4.7065e-06  Tolerance :   5.0000e-09
  Last DIIS Error            ...    3.1509e-03  Tolerance :   5.0000e-07
  Last Orbital Gradient      ...    4.9708e-06  Tolerance :   1.0000e-05
  Last Orbital Rotation      ...    1.9191e-05  Tolerance :   1.0000e-05


----------------
ORBITAL ENERGIES
----------------

  NO   OCC          E(Eh)            E(eV) 
   0   2.0000     -11.280183      -306.9494 
   1   2.0000     -11.278746      -306.9103 
   2   2.0000     -11.274822      -306.8035 
   3   2.0000     -11.268782      -306.6392 
   4   2.0000     -11.260997      -306.4273 
   5   2.0000     -11.258602      -306.3621 
   6   2.0000     -11.253927      -306.2349 
   7   2.0000     -11.252062      -306.1842 
   8   2.0000     -11.249095      -306.1034 
   9   2.0000     -11.231987      -305.6379 
  10   2.0000      -1.205483       -32.8029 
  11   2.0000      -1.125664       -30.6309 
  12   2.0000      -1.074660       -29.2430 
  13   2.0000      -1.031882       -28.0789 
  14   2.0000      -0.984204       -26.7816 
  15   2.0000      -0.874384       -23.7932 
  16   2.0000      -0.862740       -23.4763 
  17   2.0000      -0.792397       -21.5622 
  18   2.0000      -0.735837       -20.0231 
  19   2.0000      -0.708770       -19.2866 
  20   2.0000      -0.671496       -18.2723 
  21   2.0000      -0.624890       -17.0041 
  22   2.0000      -0.615234       -16.7414 
  23   2.0000      -0.589055       -16.0290 
  24   2.0000      -0.563631       -15.3372 
  25   2.0000      -0.557485       -15.1699 
  26   2.0000      -0.555367       -15.1123 
  27   2.0000      -0.504599       -13.7308 
  28   2.0000      -0.464935       -12.6515 
  29   2.0000      -0.404205       -10.9990 
  30   2.0000      -0.341621        -9.2960 
  31   2.0000      -0.302194        -8.2231 
  32   2.0000      -0.269507        -7.3337 
  33   0.0000      -0.036928        -1.0049 
  34   0.0000       0.076030         2.0689 
  35   0.0000       0.090384         2.4595 
  36   0.0000       0.152082         4.1384 
  37   0.0000       0.155583         4.2336 
  38   0.0000       0.166099         4.5198 
  39   0.0000       0.180524         4.9123 
  40   0.0000       0.194843         5.3020 
  41   0.0000       0.196377         5.3437 
  42   0.0000       0.233026         6.3410 
  43   0.0000       0.246815         6.7162 
*Only the first 10 virtual orbitals were printed.

                    ********************************
                    * MULLIKEN POPULATION ANALYSIS *
                    ********************************

-----------------------
MULLIKEN ATOMIC CHARGES
-----------------------
   0 C :   -0.087572
   1 C :   -0.152877
   2 C :   -0.016749
   3 C :   -0.184482
   4 C :   -0.075696
   5 C :    0.296174
   6 C :   -0.088038
   7 C :   -0.146466
   8 C :   -0.292339
   9 C :   -0.053435
  10 H :    0.119929
  11 H :    0.115669
  12 H :    0.143555
  13 H :    0.139976
  14 H :    0.137324
  15 H :    0.145027
Sum of atomic charges:    0.0000000

--------------------------------
MULLIKEN REDUCED ORBITAL CHARGES
--------------------------------
  0 C s       :     3.093539  s :     3.093539
      pz      :     0.989664  p :     2.884332
      px      :     0.975126
      py      :     0.919541
      dz2     :     0.005250  d :     0.100937
      dxz     :     0.007857
      dyz     :     0.022758
      dx2y2   :     0.035461
      dxy     :     0.029611
      f0      :     0.001706  f :     0.008765
      f+1     :     0.000932
      f-1     :     0.000987
      f+2     :     0.000343
      f-2     :     0.001012
      f+3     :     0.002031
      f-3     :     0.001754

  1 C s       :     3.397596  s :     3.397596
      pz      :     0.906377  p :     2.655915
      px      :     0.826677
      py      :     0.922862
      dz2     :     0.004890  d :     0.090854
      dxz     :     0.022570
      dyz     :     0.013105
      dx2y2   :     0.023221
      dxy     :     0.027068
      f0      :     0.001549  f :     0.008512
      f+1     :     0.000906
      f-1     :     0.000439
      f+2     :     0.000768
      f-2     :     0.000972
      f+3     :     0.001585
      f-3     :     0.002294

  2 C s       :     3.168399  s :     3.168399
      pz      :     0.976727  p :     2.660794
      px      :     0.840009
      py      :     0.844058
      dz2     :     0.006470  d :     0.174767
      dxz     :     0.027089
      dyz     :     0.018786
      dx2y2   :     0.046745
      dxy     :     0.075679
      f0      :     0.002182  f :     0.012788
      f+1     :     0.001327
      f-1     :     0.001057
      f+2     :     0.001108
      f-2     :     0.000672
      f+3     :     0.003203
      f-3     :     0.003239

  3 C s       :     3.169141  s :     3.169141
      pz      :     0.959192  p :     2.906122
      px      :     0.991226
      py      :     0.955704
      dz2     :     0.006159  d :     0.100667
      dxz     :     0.018286
      dyz     :     0.015062
      dx2y2   :     0.033080
      dxy     :     0.028080
      f0      :     0.001614  f :     0.008552
      f+1     :     0.000847
      f-1     :     0.000927
      f+2     :     0.001238
      f-2     :     0.000184
      f+3     :     0.001897
      f-3     :     0.001844

  4 C s       :     3.059133  s :     3.059133
      pz      :     0.979219  p :     2.904351
      px      :     0.960498
      py      :     0.964634
      dz2     :     0.003021  d :     0.102123
      dxz     :     0.025634
      dyz     :     0.007125
      dx2y2   :     0.024355
      dxy     :     0.041988
      f0      :     0.001775  f :     0.010090
      f+1     :     0.001273
      f-1     :     0.000776
      f+2     :     0.000866
      f-2     :     0.000805
      f+3     :     0.001817
      f-3     :     0.002778

  5 C s       :     3.109735  s :     3.109735
      pz      :     0.916690  p :     2.419030
      px      :     0.860832
      py      :     0.641508
      dz2     :     0.007701  d :     0.161022
      dxz     :     0.023843
      dyz     :     0.025785
      dx2y2   :     0.057425
      dxy     :     0.046267
      f0      :     0.002106  f :     0.014039
      f+1     :     0.001102
      f-1     :     0.001307
      f+2     :     0.001136
      f-2     :     0.001130
      f+3     :     0.003472
      f-3     :     0.003786

  6 C s       :     3.355404  s :     3.355404
      pz      :     0.915744  p :     2.631790
      px      :     0.952179
      py      :     0.763867
      dz2     :     0.004928  d :     0.092311
      dxz     :     0.027131
      dyz     :     0.008948
      dx2y2   :     0.017297
      dxy     :     0.034007
      f0      :     0.001568  f :     0.008533
      f+1     :     0.000940
      f-1     :     0.000424
      f+2     :     0.000786
      f-2     :     0.000943
      f+3     :     0.002299
      f-3     :     0.001574

  7 C s       :     3.137988  s :     3.137988
      pz      :     0.988981  p :     2.898180
      px      :     0.959269
      py      :     0.949929
      dz2     :     0.005228  d :     0.101583
      dxz     :     0.015426
      dyz     :     0.015258
      dx2y2   :     0.030338
      dxy     :     0.035333
      f0      :     0.001711  f :     0.008716
      f+1     :     0.000906
      f-1     :     0.001010
      f+2     :     0.001137
      f-2     :     0.000222
      f+3     :     0.001729
      f-3     :     0.002001

  8 C s       :     3.256868  s :     3.256868
      pz      :     0.990299  p :     2.924842
      px      :     0.943048
      py      :     0.991496
      dz2     :     0.005503  d :     0.101450
      dxz     :     0.026960
      dyz     :     0.006559
      dx2y2   :     0.029494
      dxy     :     0.032934
      f0      :     0.001710  f :     0.009179
      f+1     :     0.000931
      f-1     :     0.000965
      f+2     :     0.000411
      f-2     :     0.001008
      f+3     :     0.001793
      f-3     :     0.002361

  9 C s       :     3.081685  s :     3.081685
      pz      :     0.953651  p :     2.867203
      px      :     0.991404
      py      :     0.922148
      dz2     :     0.004884  d :     0.095814
      dxz     :     0.009644
      dyz     :     0.024053
      dx2y2   :     0.029657
      dxy     :     0.027576
      f0      :     0.001657  f :     0.008732
      f+1     :     0.000873
      f-1     :     0.000920
      f+2     :     0.000474
      f-2     :     0.000997
      f+3     :     0.001891
      f-3     :     0.001920

 10 H s       :     0.848825  s :     0.848825
      pz      :     0.006490  p :     0.031246
      px      :     0.013526
      py      :     0.011230

 11 H s       :     0.859592  s :     0.859592
      pz      :     0.004530  p :     0.024739
      px      :     0.003650
      py      :     0.016559

 12 H s       :     0.832833  s :     0.832833
      pz      :     0.004267  p :     0.023612
      px      :     0.009842
      py      :     0.009502

 13 H s       :     0.836426  s :     0.836426
      pz      :     0.004119  p :     0.023598
      px      :     0.015048
      py      :     0.004430

 14 H s       :     0.839163  s :     0.839163
      pz      :     0.004109  p :     0.023514
      px      :     0.008935
      py      :     0.010470

 15 H s       :     0.831343  s :     0.831343
      pz      :     0.004273  p :     0.023630
      px      :     0.015543
      py      :     0.003815



                     *******************************
                     * LOEWDIN POPULATION ANALYSIS *
                     *******************************

----------------------
LOEWDIN ATOMIC CHARGES
----------------------
   0 C :   -0.156399
   1 C :    0.040180
   2 C :   -0.138019
   3 C :   -0.113916
   4 C :   -0.089696
   5 C :   -0.064679
   6 C :    0.053529
   7 C :   -0.156336
   8 C :   -0.103759
   9 C :   -0.119301
  10 H :    0.122024
  11 H :    0.148293
  12 H :    0.147026
  13 H :    0.142160
  14 H :    0.141787
  15 H :    0.147106

-------------------------------
LOEWDIN REDUCED ORBITAL CHARGES
-------------------------------
  0 C s       :     2.764839  s :     2.764839
      pz      :     0.897186  p :     2.955404
      px      :     1.005872
      py      :     1.052346
      dz2     :     0.026247  d :     0.394262
      dxz     :     0.016322
      dyz     :     0.076243
      dx2y2   :     0.161702
      dxy     :     0.113748
      f0      :     0.003035  f :     0.041894
      f+1     :     0.003242
      f-1     :     0.004196
      f+2     :     0.002271
      f-2     :     0.006559
      f+3     :     0.011554
      f-3     :     0.011038

  1 C s       :     2.859589  s :     2.859589
      pz      :     0.845832  p :     2.734885
      px      :     0.979709
      py      :     0.909343
      dz2     :     0.026557  d :     0.322630
      dxz     :     0.079624
      dyz     :     0.022192
      dx2y2   :     0.101423
      dxy     :     0.092835
      f0      :     0.003633  f :     0.042716
      f+1     :     0.004355
      f-1     :     0.002044
      f+2     :     0.003929
      f-2     :     0.004941
      f+3     :     0.009845
      f-3     :     0.013968

  2 C s       :     2.684332  s :     2.684332
      pz      :     0.852340  p :     2.843988
      px      :     1.062643
      py      :     0.929005
      dz2     :     0.034226  d :     0.544827
      dxz     :     0.088061
      dyz     :     0.058966
      dx2y2   :     0.147446
      dxy     :     0.216127
      f0      :     0.003910  f :     0.064871
      f+1     :     0.004577
      f-1     :     0.003821
      f+2     :     0.007818
      f-2     :     0.005339
      f+3     :     0.019484
      f-3     :     0.019921

  3 C s       :     2.762027  s :     2.762027
      pz      :     0.876854  p :     2.910583
      px      :     1.032409
      py      :     1.001320
      dz2     :     0.025882  d :     0.398190
      dxz     :     0.049569
      dyz     :     0.047406
      dx2y2   :     0.106330
      dxy     :     0.169002
      f0      :     0.002973  f :     0.043117
      f+1     :     0.003720
      f-1     :     0.003455
      f+2     :     0.007966
      f-2     :     0.001099
      f+3     :     0.010586
      f-3     :     0.013316

  4 C s       :     2.723290  s :     2.723290
      pz      :     0.879345  p :     2.929317
      px      :     1.041030
      py      :     1.008942
      dz2     :     0.028160  d :     0.390189
      dxz     :     0.078386
      dyz     :     0.018680
      dx2y2   :     0.097797
      dxy     :     0.167166
      f0      :     0.002899  f :     0.046900
      f+1     :     0.004901
      f-1     :     0.002689
      f+2     :     0.003287
      f-2     :     0.005021
      f+3     :     0.011337
      f-3     :     0.016768

  5 C s       :     2.676160  s :     2.676160
      pz      :     0.829296  p :     2.742529
      px      :     0.995725
      py      :     0.917508
      dz2     :     0.038684  d :     0.579818
      dxz     :     0.073048
      dyz     :     0.084687
      dx2y2   :     0.188257
      dxy     :     0.195143
      f0      :     0.003917  f :     0.066172
      f+1     :     0.003678
      f-1     :     0.004608
      f+2     :     0.006851
      f-2     :     0.007568
      f+3     :     0.019266
      f-3     :     0.020283

  6 C s       :     2.859466  s :     2.859466
      pz      :     0.852181  p :     2.720343
      px      :     1.081039
      py      :     0.787123
      dz2     :     0.026590  d :     0.323899
      dxz     :     0.086725
      dyz     :     0.016088
      dx2y2   :     0.084895
      dxy     :     0.109602
      f0      :     0.003613  f :     0.042763
      f+1     :     0.004501
      f-1     :     0.001895
      f+2     :     0.002578
      f-2     :     0.006315
      f+3     :     0.014005
      f-3     :     0.009856

  7 C s       :     2.764650  s :     2.764650
      pz      :     0.896976  p :     2.955825
      px      :     1.045856
      py      :     1.012992
      dz2     :     0.026341  d :     0.394058
      dxz     :     0.042752
      dyz     :     0.050361
      dx2y2   :     0.101027
      dxy     :     0.173577
      f0      :     0.003056  f :     0.041804
      f+1     :     0.003873
      f-1     :     0.003573
      f+2     :     0.007616
      f-2     :     0.001260
      f+3     :     0.010880
      f-3     :     0.011546

  8 C s       :     2.746154  s :     2.746154
      pz      :     0.892410  p :     2.914578
      px      :     1.031622
      py      :     0.990546
      dz2     :     0.028073  d :     0.399416
      dxz     :     0.081324
      dyz     :     0.015395
      dx2y2   :     0.169236
      dxy     :     0.105388
      f0      :     0.003054  f :     0.043611
      f+1     :     0.004000
      f-1     :     0.003384
      f+2     :     0.002330
      f-2     :     0.006028
      f+3     :     0.013222
      f-3     :     0.011593

  9 C s       :     2.763470  s :     2.763470
      pz      :     0.874188  p :     2.916851
      px      :     1.004288
      py      :     1.038375
      dz2     :     0.026563  d :     0.396249
      dxz     :     0.019699
      dyz     :     0.078173
      dx2y2   :     0.149431
      dxy     :     0.122382
      f0      :     0.003011  f :     0.042731
      f+1     :     0.003268
      f-1     :     0.003925
      f+2     :     0.003173
      f-2     :     0.005911
      f+3     :     0.012849
      f-3     :     0.010593

 10 H s       :     0.778376  s :     0.778376
      pz      :     0.022775  p :     0.099600
      px      :     0.041077
      py      :     0.035748

 11 H s       :     0.788123  s :     0.788123
      pz      :     0.014316  p :     0.063584
      px      :     0.011315
      py      :     0.037953

 12 H s       :     0.793492  s :     0.793492
      pz      :     0.013156  p :     0.059481
      px      :     0.023323
      py      :     0.023003

 13 H s       :     0.798227  s :     0.798227
      pz      :     0.012643  p :     0.059613
      px      :     0.034397
      py      :     0.012572

 14 H s       :     0.798578  s :     0.798578
      pz      :     0.012677  p :     0.059635
      px      :     0.021664
      py      :     0.025294

 15 H s       :     0.793450  s :     0.793450
      pz      :     0.013163  p :     0.059444
      px      :     0.035293
      py      :     0.010988



                      *****************************
                      * MAYER POPULATION ANALYSIS *
                      *****************************

  NA   - Mulliken gross atomic population
  ZA   - Total nuclear charge
  QA   - Mulliken gross atomic charge
  VA   - Mayer's total valence
  BVA  - Mayer's bonded valence
  FA   - Mayer's free valence

  ATOM       NA         ZA         QA         VA         BVA        FA
  0 C      6.0876     6.0000    -0.0876     3.9096     3.9096     0.0000
  1 C      6.1529     6.0000    -0.1529     3.6798     3.6798    -0.0000
  2 C      6.0167     6.0000    -0.0167     3.9454     3.9454     0.0000
  3 C      6.1845     6.0000    -0.1845     3.9129     3.9129     0.0000
  4 C      6.0757     6.0000    -0.0757     3.9635     3.9635     0.0000
  5 C      5.7038     6.0000     0.2962     3.6821     3.6821     0.0000
  6 C      6.0880     6.0000    -0.0880     3.6324     3.6324    -0.0000
  7 C      6.1465     6.0000    -0.1465     3.9642     3.9642    -0.0000
  8 C      6.2923     6.0000    -0.2923     3.9934     3.9934     0.0000
  9 C      6.0534     6.0000    -0.0534     3.8326     3.8326    -0.0000
 10 H      0.8801     1.0000     0.1199     0.9554     0.9554     0.0000
 11 H      0.8843     1.0000     0.1157     0.9856     0.9856     0.0000
 12 H      0.8564     1.0000     0.1436     0.9626     0.9626    -0.0000
 13 H      0.8600     1.0000     0.1400     0.9706     0.9706    -0.0000
 14 H      0.8627     1.0000     0.1373     0.9741     0.9741    -0.0000
 15 H      0.8550     1.0000     0.1450     0.9612     0.9612     0.0000

  Mayer bond orders larger than 0.100000
B(  0-C ,  1-C ) :   1.6378 B(  0-C ,  3-C ) :   1.1918 B(  0-C , 15-H ) :   0.9701 
B(  1-C ,  2-C ) :   1.3214 B(  1-C ,  6-C ) :   0.4582 B(  2-C ,  5-C ) :   1.2086 
B(  2-C ,  6-C ) :   1.3169 B(  3-C ,  4-C ) :   1.6487 B(  3-C , 14-H ) :   0.9563 
B(  4-C ,  5-C ) :   1.2524 B(  4-C , 10-H ) :   0.9823 B(  5-C ,  8-C ) :   1.2517 
B(  6-C ,  7-C ) :   1.6380 B(  7-C ,  9-C ) :   1.1922 B(  7-C , 12-H ) :   0.9740 
B(  8-C ,  9-C ) :   1.6140 B(  8-C , 11-H ) :   0.9846 B(  9-C , 13-H ) :   0.9614 


-------
TIMINGS
-------

Total SCF time: 0 days 0 hours 0 min 11 sec 

Total time                  ....      11.658 sec
Sum of individual times     ....      11.450 sec  ( 98.2%)

SCF preparation             ....       6.795 sec  ( 58.3%)
Fock matrix formation       ....       3.636 sec  ( 31.2%)
  Startup                   ....       0.023 sec  (  0.6% of F)
  Coulomb+Exchange Fock     ....       3.723 sec  (102.4% of F)
Diagonalization             ....       0.000 sec  (  0.0%)
Density matrix formation    ....       0.131 sec  (  1.1%)
Total Energy calculation    ....       0.119 sec  (  1.0%)
Population analysis         ....       0.040 sec  (  0.3%)
Orbital Transformation      ....       0.065 sec  (  0.6%)
Orbital Orthonormalization  ....       0.000 sec  (  0.0%)
DIIS solution               ....       0.306 sec  (  2.6%)
SOSCF solution              ....       0.358 sec  (  3.1%)
Finished LeanSCF after  11.7 sec

Maximum memory used throughout the entire LEANSCF-calculation: 24.9 MB

-------------------------   --------------------
FINAL SINGLE POINT ENERGY      -381.977909105227
-------------------------   --------------------



           ************************************************************
           *        Program running with 192 parallel MPI-processes   *
           *              working on a common directory               *
           ************************************************************

------------------------------------------------------------------------------
                              ORCA PROPERTY CALCULATIONS
------------------------------------------------------------------------------

GBWName                                 ... C10H6.gbw
Number of atoms                         ...     16
Number of basis functions               ...    346
Max core memory                         ...   3500 MB

Electric properties:
Dipole moment                           ... YES
Quadrupole moment                       ...  NO
Static polarizability (Dipole/Dipole)   ...  NO
Static polarizability (Dipole/Quad.)    ...  NO
Static polarizability (Quad./Quad.)     ...  NO
Static polarizability (Velocity)        ...  NO
Static hyperpolarizability              ...  NO

Atomic electric properties:
Dipole moment                           ...  NO
Quadrupole moment                       ...  NO
Static polarizability                   ...  NO

Choice of electric origin               ... Center of mass
Position of electric origin             ...    -3.256501    -3.050284     0.000020

General magnetic properties:
Magnetizability                         ...  NO

EPR properties:
g-Tensor (aka g-matrix)                 ...  NO
Zero-Field splitting spin-orbit         ...  NO
Zero-field splitting spin-spin          ...  NO
Hyperfine couplings                     ...  NO (   0 nuclei)
Quadrupole couplings                    ...  NO (   0 nuclei)
Contact density                         ...  NO (   0 nuclei)

NMR properties:
Chemical shifts                         ...  NO (   0 nuclei)
Spin-rotation constants                 ...  NO (   0 nuclei)
Spin-spin couplings                     ...  NO (   0 nuclei,    0 pairs)

Choice of magnetic origin               ... GIAO
Position of magnetic origin             ...     0.000000     0.000000     0.000000

Properties with geometric perturbations:
SCF Hessian                             ...  NO
IR spectrum                             ...  NO
VCD spectrum                            ...  NO
X-ray spectroscopy properties:
SCF XES/XAS/RIXS spectra                ...  NO

SCF SOC stabilization energy            ...  NO
Diagonal Born-Oppenheimer correction    ...  NO

-------------
DIPOLE MOMENT
-------------

Method             : SCF
Type of density    : Electron Density
Multiplicity       :   1
Irrep              :   0
Energy             :  -381.9779091052271838 Eh
Basis              : AO
                                X                 Y                 Z
Electronic contribution:     -0.993188336       3.263573968       0.000111180
Nuclear contribution   :      1.345365455      -4.207131112      -0.000146083
                        -----------------------------------------
Total Dipole Moment    :      0.352177119      -0.943557144      -0.000034903
                        -----------------------------------------
Magnitude (a.u.)       :      1.007138922
Magnitude (Debye)      :      2.559943698



--------------------
Rotational spectrum 
--------------------
 
Rotational constants in cm-1:             0.117123             0.041640             0.030719 
Rotational constants in MHz :          3511.261065          1248.341498           920.928342 

Dipole components along the rotational axes: 
x,y,z [a.u.] :     0.097685    -1.002390    -0.000006 
x,y,z [Debye]:     0.248296    -2.547874    -0.000016 

 

Dipole moment calculation done in   0.1 sec 

Maximum memory used throughout the entire PROP-calculation: 17.5 MB

--------------------------------
SUGGESTED CITATIONS FOR THIS RUN
--------------------------------

Below you find a list of papers that are relevant to this ORCA run
We neither can nor want to force you to cite these papers, but we appreciate if you do
You receive ORCA, which is the product of decades of hard work by many enthusiastic individuals, for free
The only thing we kindly ask in return is that you cite our papers,
We deeply appreciate it, if you show your appreciation for ORCA by not just citing the generic ORCA reference.

Please note that relegating all ORCA citations to the supporting information does *not* help us.
SI sections are not indexed - citations you put there will not count into any citation statistics
But we need these citations in order to attract the funding resources that allow us to do what we are doing

Therefore, if you are a happy ORCA user, please consider citing a few of the papers listed below in the main body of your paper

In addition to the list printed below, the program has created the file C10H6.bibtex that contains the list in bibtex format
You can import this file easily into all common literature databanks and citation aid programs


List of essential papers. We consider these as the minimum necessary citations

  1. Neese, F.
     Software update: the ORCA program system, version 6.0
     WIRES Comput. Molec. Sci. 2025 15(1), e70019
     doi.org/10.1002/wcms.7019

List of papers to cite with high priority. The work reported in these papers was absolutely
necessary for this run to complete.
Our perspective: the developers of density functionals and basis sets usually get cited in chemistry papers
Good! But without the algorithms to do something with them, the functionals or basis sets would not do anything.
Hence, in our opinion, the algorithm design and method developments papers are equally worthy of getting cited

  1. Neese, F.
     The SHARK Integral Generation and Digestion System
     J. Comp. Chem. 2022 44(3), 381
     doi.org/10.1002/jcc.26942

List of suggested additional citations. These are papers that are important in the 'surrounding' of 
of this run, or papers that preceded the highly important papers. If you like your results we are grateful for a citation.

  1. Neese, F.
     The ORCA program system
     WIRES Comput. Molec. Sci. 2012 2(1), 73-78
     doi.org/10.1002/wcms.81
  2. Neese, F.
     Software update: the ORCA program system, version 4.0
     WIRES Comput. Molec. Sci. 2018 8(1), 1-6
     doi.org/10.1002/wcms.1327
  3. Neese, F.; Wennmohs, F.; Becker, U.; Riplinger, C.
     The ORCA quantum chemistry program package
     J. Chem. Phys. 2020 152(22), 224108
     doi.org/10.1063/5.0004608
  4. Neese, F.
     Software update: The ORCA program system—Version 5.0
     WIRES Comput. Molec. Sci. 2022 12(1), e1606
     doi.org/10.1002/wcms.1606

List of optional additional citations

  1. Neese, F.
     Approximate second-order SCF convergence for spin unrestricted wavefunctions
     Chem. Phys. Lett. 2000 325(1-3), 93-98
     doi.org/10.1016/s0009-2614(00)00662-x

Timings for individual modules:

Sum of individual times          ...       47.514 sec (=   0.792 min)
Startup calculation              ...       11.142 sec (=   0.186 min)  23.4 %
SCF iterations                   ...       26.026 sec (=   0.434 min)  54.8 %
Property calculations            ...       10.346 sec (=   0.172 min)  21.8 %
                             ****ORCA TERMINATED NORMALLY****
TOTAL RUN TIME: 0 days 0 hours 0 minutes 57 seconds 965 msec
