[Molden Format]
[Atoms] Angs
 c       1                    6 -4.276188444100e+00 -1.580324404000e+00  5.070070000000e-05
 c       2                    6 -3.340056833200e+00 -5.958413224000e-01  6.444390000000e-05
 c       3                    6 -1.952104077800e+00 -7.706086572000e-01  3.831960000000e-05
 c       4                    6 -3.862173666100e+00 -2.943295648500e+00  5.095500000000e-06
 c       5                    6 -2.516349489000e+00 -3.211633592500e+00 -9.191000000000e-06
 c       6                    6 -1.582440466000e+00 -2.144696165300e+00  3.188000000000e-07
 c       7                    6 -8.391974472000e-01  7.696362910000e-02  3.881220000000e-05
 c       8                    6  4.645206409000e-01 -3.049358273000e-01  5.310000000000e-06
 c       9                    6 -2.392693834000e-01 -2.599034610900e+00 -3.638830000000e-05
 c      10                    6  7.902509402000e-01 -1.691656776200e+00 -3.787860000000e-05
 h      11                    1 -1.816734213100e+00 -3.844352229800e+00 -4.321960000000e-05
 h      12                    1 -2.424204472000e-01 -3.666538180100e+00 -4.337040000000e-05
 h      13                    1  1.258681660300e+00  4.317521829000e-01  1.039630000000e-05
 h      14                    1  1.824498230900e+00 -2.010502572800e+00 -5.871690000000e-05
 h      15                    1 -4.596823535100e+00 -3.738042329500e+00 -1.526730000000e-05
 h      16                    1 -5.332776299500e+00 -1.341531203200e+00  5.835310000000e-05
[GTO]
1
 s           8
      6.665000000000e+03      6.915839628130e-04
      1.000000000000e+03      5.325796152934e-03
      2.280000000000e+02      2.706072104203e-02
      6.471000000000e+01      1.016568461408e-01
      2.106000000000e+01      2.745748236174e-01
      7.495000000000e+00      4.482943189238e-01
      2.797000000000e+00      2.849026107152e-01
      5.215000000000e-01      1.519485920608e-02
 s           8
      6.665000000000e+03     -2.932696526865e-04
      1.000000000000e+03     -2.318035473975e-03
      2.280000000000e+02     -1.149978603857e-02
      6.471000000000e+01     -4.682672700979e-02
      2.106000000000e+01     -1.284661687505e-01
      7.495000000000e+00     -3.012662724629e-01
      2.797000000000e+00     -2.556307023301e-01
      5.215000000000e-01      1.093793361012e+00
 s           1
      1.596000000000e-01      1.000000000000e+00
 p           3
      9.439000000000e+00      5.697925159004e-02
      2.002000000000e+00      3.132072115007e-01
      5.456000000000e-01      7.603767417375e-01
 p           1
      1.517000000000e-01      1.000000000000e+00
 d           1
      5.500000000000e-01      1.000000000000e+00

2
 s           8
      6.665000000000e+03      6.915839628130e-04
      1.000000000000e+03      5.325796152934e-03
      2.280000000000e+02      2.706072104203e-02
      6.471000000000e+01      1.016568461408e-01
      2.106000000000e+01      2.745748236174e-01
      7.495000000000e+00      4.482943189238e-01
      2.797000000000e+00      2.849026107152e-01
      5.215000000000e-01      1.519485920608e-02
 s           8
      6.665000000000e+03     -2.932696526865e-04
      1.000000000000e+03     -2.318035473975e-03
      2.280000000000e+02     -1.149978603857e-02
      6.471000000000e+01     -4.682672700979e-02
      2.106000000000e+01     -1.284661687505e-01
      7.495000000000e+00     -3.012662724629e-01
      2.797000000000e+00     -2.556307023301e-01
      5.215000000000e-01      1.093793361012e+00
 s           1
      1.596000000000e-01      1.000000000000e+00
 p           3
      9.439000000000e+00      5.697925159004e-02
      2.002000000000e+00      3.132072115007e-01
      5.456000000000e-01      7.603767417375e-01
 p           1
      1.517000000000e-01      1.000000000000e+00
 d           1
      5.500000000000e-01      1.000000000000e+00

3
 s           8
      6.665000000000e+03      6.915839628130e-04
      1.000000000000e+03      5.325796152934e-03
      2.280000000000e+02      2.706072104203e-02
      6.471000000000e+01      1.016568461408e-01
      2.106000000000e+01      2.745748236174e-01
      7.495000000000e+00      4.482943189238e-01
      2.797000000000e+00      2.849026107152e-01
      5.215000000000e-01      1.519485920608e-02
 s           8
      6.665000000000e+03     -2.932696526865e-04
      1.000000000000e+03     -2.318035473975e-03
      2.280000000000e+02     -1.149978603857e-02
      6.471000000000e+01     -4.682672700979e-02
      2.106000000000e+01     -1.284661687505e-01
      7.495000000000e+00     -3.012662724629e-01
      2.797000000000e+00     -2.556307023301e-01
      5.215000000000e-01      1.093793361012e+00
 s           1
      1.596000000000e-01      1.000000000000e+00
 p           3
      9.439000000000e+00      5.697925159004e-02
      2.002000000000e+00      3.132072115007e-01
      5.456000000000e-01      7.603767417375e-01
 p           1
      1.517000000000e-01      1.000000000000e+00
 d           1
      5.500000000000e-01      1.000000000000e+00

4
 s           8
      6.665000000000e+03      6.915839628130e-04
      1.000000000000e+03      5.325796152934e-03
      2.280000000000e+02      2.706072104203e-02
      6.471000000000e+01      1.016568461408e-01
      2.106000000000e+01      2.745748236174e-01
      7.495000000000e+00      4.482943189238e-01
      2.797000000000e+00      2.849026107152e-01
      5.215000000000e-01      1.519485920608e-02
 s           8
      6.665000000000e+03     -2.932696526865e-04
      1.000000000000e+03     -2.318035473975e-03
      2.280000000000e+02     -1.149978603857e-02
      6.471000000000e+01     -4.682672700979e-02
      2.106000000000e+01     -1.284661687505e-01
      7.495000000000e+00     -3.012662724629e-01
      2.797000000000e+00     -2.556307023301e-01
      5.215000000000e-01      1.093793361012e+00
 s           1
      1.596000000000e-01      1.000000000000e+00
 p           3
      9.439000000000e+00      5.697925159004e-02
      2.002000000000e+00      3.132072115007e-01
      5.456000000000e-01      7.603767417375e-01
 p           1
      1.517000000000e-01      1.000000000000e+00
 d           1
      5.500000000000e-01      1.000000000000e+00

5
 s           8
      6.665000000000e+03      6.915839628130e-04
      1.000000000000e+03      5.325796152934e-03
      2.280000000000e+02      2.706072104203e-02
      6.471000000000e+01      1.016568461408e-01
      2.106000000000e+01      2.745748236174e-01
      7.495000000000e+00      4.482943189238e-01
      2.797000000000e+00      2.849026107152e-01
      5.215000000000e-01      1.519485920608e-02
 s           8
      6.665000000000e+03     -2.932696526865e-04
      1.000000000000e+03     -2.318035473975e-03
      2.280000000000e+02     -1.149978603857e-02
      6.471000000000e+01     -4.682672700979e-02
      2.106000000000e+01     -1.284661687505e-01
      7.495000000000e+00     -3.012662724629e-01
      2.797000000000e+00     -2.556307023301e-01
      5.215000000000e-01      1.093793361012e+00
 s           1
      1.596000000000e-01      1.000000000000e+00
 p           3
      9.439000000000e+00      5.697925159004e-02
      2.002000000000e+00      3.132072115007e-01
      5.456000000000e-01      7.603767417375e-01
 p           1
      1.517000000000e-01      1.000000000000e+00
 d           1
      5.500000000000e-01      1.000000000000e+00

6
 s           8
      6.665000000000e+03      6.915839628130e-04
      1.000000000000e+03      5.325796152934e-03
      2.280000000000e+02      2.706072104203e-02
      6.471000000000e+01      1.016568461408e-01
      2.106000000000e+01      2.745748236174e-01
      7.495000000000e+00      4.482943189238e-01
      2.797000000000e+00      2.849026107152e-01
      5.215000000000e-01      1.519485920608e-02
 s           8
      6.665000000000e+03     -2.932696526865e-04
      1.000000000000e+03     -2.318035473975e-03
      2.280000000000e+02     -1.149978603857e-02
      6.471000000000e+01     -4.682672700979e-02
      2.106000000000e+01     -1.284661687505e-01
      7.495000000000e+00     -3.012662724629e-01
      2.797000000000e+00     -2.556307023301e-01
      5.215000000000e-01      1.093793361012e+00
 s           1
      1.596000000000e-01      1.000000000000e+00
 p           3
      9.439000000000e+00      5.697925159004e-02
      2.002000000000e+00      3.132072115007e-01
      5.456000000000e-01      7.603767417375e-01
 p           1
      1.517000000000e-01      1.000000000000e+00
 d           1
      5.500000000000e-01      1.000000000000e+00

7
 s           8
      6.665000000000e+03      6.915839628130e-04
      1.000000000000e+03      5.325796152934e-03
      2.280000000000e+02      2.706072104203e-02
      6.471000000000e+01      1.016568461408e-01
      2.106000000000e+01      2.745748236174e-01
      7.495000000000e+00      4.482943189238e-01
      2.797000000000e+00      2.849026107152e-01
      5.215000000000e-01      1.519485920608e-02
 s           8
      6.665000000000e+03     -2.932696526865e-04
      1.000000000000e+03     -2.318035473975e-03
      2.280000000000e+02     -1.149978603857e-02
      6.471000000000e+01     -4.682672700979e-02
      2.106000000000e+01     -1.284661687505e-01
      7.495000000000e+00     -3.012662724629e-01
      2.797000000000e+00     -2.556307023301e-01
      5.215000000000e-01      1.093793361012e+00
 s           1
      1.596000000000e-01      1.000000000000e+00
 p           3
      9.439000000000e+00      5.697925159004e-02
      2.002000000000e+00      3.132072115007e-01
      5.456000000000e-01      7.603767417375e-01
 p           1
      1.517000000000e-01      1.000000000000e+00
 d           1
      5.500000000000e-01      1.000000000000e+00

8
 s           8
      6.665000000000e+03      6.915839628130e-04
      1.000000000000e+03      5.325796152934e-03
      2.280000000000e+02      2.706072104203e-02
      6.471000000000e+01      1.016568461408e-01
      2.106000000000e+01      2.745748236174e-01
      7.495000000000e+00      4.482943189238e-01
      2.797000000000e+00      2.849026107152e-01
      5.215000000000e-01      1.519485920608e-02
 s           8
      6.665000000000e+03     -2.932696526865e-04
      1.000000000000e+03     -2.318035473975e-03
      2.280000000000e+02     -1.149978603857e-02
      6.471000000000e+01     -4.682672700979e-02
      2.106000000000e+01     -1.284661687505e-01
      7.495000000000e+00     -3.012662724629e-01
      2.797000000000e+00     -2.556307023301e-01
      5.215000000000e-01      1.093793361012e+00
 s           1
      1.596000000000e-01      1.000000000000e+00
 p           3
      9.439000000000e+00      5.697925159004e-02
      2.002000000000e+00      3.132072115007e-01
      5.456000000000e-01      7.603767417375e-01
 p           1
      1.517000000000e-01      1.000000000000e+00
 d           1
      5.500000000000e-01      1.000000000000e+00

9
 s           8
      6.665000000000e+03      6.915839628130e-04
      1.000000000000e+03      5.325796152934e-03
      2.280000000000e+02      2.706072104203e-02
      6.471000000000e+01      1.016568461408e-01
      2.106000000000e+01      2.745748236174e-01
      7.495000000000e+00      4.482943189238e-01
      2.797000000000e+00      2.849026107152e-01
      5.215000000000e-01      1.519485920608e-02
 s           8
      6.665000000000e+03     -2.932696526865e-04
      1.000000000000e+03     -2.318035473975e-03
      2.280000000000e+02     -1.149978603857e-02
      6.471000000000e+01     -4.682672700979e-02
      2.106000000000e+01     -1.284661687505e-01
      7.495000000000e+00     -3.012662724629e-01
      2.797000000000e+00     -2.556307023301e-01
      5.215000000000e-01      1.093793361012e+00
 s           1
      1.596000000000e-01      1.000000000000e+00
 p           3
      9.439000000000e+00      5.697925159004e-02
      2.002000000000e+00      3.132072115007e-01
      5.456000000000e-01      7.603767417375e-01
 p           1
      1.517000000000e-01      1.000000000000e+00
 d           1
      5.500000000000e-01      1.000000000000e+00

10
 s           8
      6.665000000000e+03      6.915839628130e-04
      1.000000000000e+03      5.325796152934e-03
      2.280000000000e+02      2.706072104203e-02
      6.471000000000e+01      1.016568461408e-01
      2.106000000000e+01      2.745748236174e-01
      7.495000000000e+00      4.482943189238e-01
      2.797000000000e+00      2.849026107152e-01
      5.215000000000e-01      1.519485920608e-02
 s           8
      6.665000000000e+03     -2.932696526865e-04
      1.000000000000e+03     -2.318035473975e-03
      2.280000000000e+02     -1.149978603857e-02
      6.471000000000e+01     -4.682672700979e-02
      2.106000000000e+01     -1.284661687505e-01
      7.495000000000e+00     -3.012662724629e-01
      2.797000000000e+00     -2.556307023301e-01
      5.215000000000e-01      1.093793361012e+00
 s           1
      1.596000000000e-01      1.000000000000e+00
 p           3
      9.439000000000e+00      5.697925159004e-02
      2.002000000000e+00      3.132072115007e-01
      5.456000000000e-01      7.603767417375e-01
 p           1
      1.517000000000e-01      1.000000000000e+00
 d           1
      5.500000000000e-01      1.000000000000e+00

11
 s           3
      1.301000000000e+01      3.349872639000e-02
      1.962000000000e+00      2.348008011741e-01
      4.446000000000e-01      8.136829578829e-01
 s           1
      1.220000000000e-01      1.000000000000e+00
 p           1
      7.270000000000e-01      1.000000000000e+00

12
 s           3
      1.301000000000e+01      3.349872639000e-02
      1.962000000000e+00      2.348008011741e-01
      4.446000000000e-01      8.136829578829e-01
 s           1
      1.220000000000e-01      1.000000000000e+00
 p           1
      7.270000000000e-01      1.000000000000e+00

13
 s           3
      1.301000000000e+01      3.349872639000e-02
      1.962000000000e+00      2.348008011741e-01
      4.446000000000e-01      8.136829578829e-01
 s           1
      1.220000000000e-01      1.000000000000e+00
 p           1
      7.270000000000e-01      1.000000000000e+00

14
 s           3
      1.301000000000e+01      3.349872639000e-02
      1.962000000000e+00      2.348008011741e-01
      4.446000000000e-01      8.136829578829e-01
 s           1
      1.220000000000e-01      1.000000000000e+00
 p           1
      7.270000000000e-01      1.000000000000e+00

15
 s           3
      1.301000000000e+01      3.349872639000e-02
      1.962000000000e+00      2.348008011741e-01
      4.446000000000e-01      8.136829578829e-01
 s           1
      1.220000000000e-01      1.000000000000e+00
 p           1
      7.270000000000e-01      1.000000000000e+00

16
 s           3
      1.301000000000e+01      3.349872639000e-02
      1.962000000000e+00      2.348008011741e-01
      4.446000000000e-01      8.136829578829e-01
 s           1
      1.220000000000e-01      1.000000000000e+00
 p           1
      7.270000000000e-01      1.000000000000e+00


[5D]
[7F]
[9G]
[MO]
 Ene=    0.289920
 Spin= Alpha
 Sym= 0->0
 Occup=     0.912970
   1     0.0000000302513545
   2     0.0000006524431807
   3     0.0000012367693393
   4     0.0000008047587187
   5    -0.0000050666956253
   6     0.1764571135270642
   7     0.0000005946565560
   8    -0.0000041496818406
   9     0.1457636730788540
  10     0.0000007556939037
  11     0.0091027477464743
  12     0.0183962422362819
  13     0.0000006915482542
  14    -0.0000001456998706
  15    -0.0000000175543077
  16    -0.0000001239841461
  17     0.0000003533977475
  18     0.0000038335621143
  19    -0.0000051431025432
  20     0.2368060116536638
  21     0.0000025677183837
  22    -0.0000041030823587
  23     0.1750917866100760
  24    -0.0000003953597607
  25    -0.0048617966774015
  26    -0.0115786930584205
  27    -0.0000002384233677
  28     0.0000000052661140
  29    -0.0000000015665943
  30    -0.0000000648366308
  31    -0.0000002775304107
  32     0.0000001404471194
  33     0.0000000775701453
  34     0.0194909297176321
  35     0.0000001109580626
  36     0.0000003304141153
  37     0.0156732074662473
  38     0.0000004558928718
  39    -0.0253164626308837
  40    -0.0068039284701510
  41    -0.0000006103254119
  42     0.0000004536455450
  43     0.0000000522240224
  44     0.0000004403720519
  45     0.0000004133401114
  46     0.0000000081653469
  47     0.0000044159265514
  48    -0.1453184280606046
  49    -0.0000004957832130
  50     0.0000042075613127
  51    -0.1370569434990354
  52     0.0000007458480224
  53    -0.0189985553158682
  54     0.0113762994957281
  55     0.0000002606450010
  56     0.0000005621893271
  57    -0.0000000151726309
  58    -0.0000006731695711
  59    -0.0000009455168680
  60    -0.0000021977758344
  61     0.0000058349515229
  62    -0.2111595911703603
  63    -0.0000016645105014
  64     0.0000050461160240
  65    -0.1805091402509577
  66    -0.0000002160760577
  67     0.0102915216767168
  68    -0.0043891647967920
  69    -0.0000000730477423
  70    -0.0000003976496839
  71     0.0000000276159391
  72     0.0000002629407454
  73    -0.0000003319045691
  74     0.0000003367453198
  75    -0.0000003015964052
  76     0.0040540045294539
  77    -0.0000001289266371
  78     0.0000003603706497
  79     0.0018194570016617
  80    -0.0000003134643785
  81     0.0180152894348553
  82     0.0067729150725477
  83     0.0000005594745120
  84    -0.0000001652888475
  85    -0.0000000126465156
  86    -0.0000000852092936
  87    -0.0000004756951692
  88    -0.0000040414575796
  89     0.0000053795551482
  90    -0.2194252047294113
  91    -0.0000030280187927
  92     0.0000039464059979
  93    -0.1648385996243965
  94     0.0000006349684736
  95    -0.0119880722416358
  96     0.0058348638258850
  97    -0.0000000178940386
  98     0.0000004595655879
  99    -0.0000000200407651
 100    -0.0000002932025728
 101    -0.0000006111760015
 102    -0.0000032628070768
 103     0.0000053080493928
 104    -0.1765766168285199
 105    -0.0000028840512567
 106     0.0000044752354013
 107    -0.1470457246134350
 108    -0.0000009690113202
 109     0.0156775573921098
 110    -0.0096025476920473
 111     0.0000000347686406
 112    -0.0000005082740494
 113     0.0000000289844111
 114    -0.0000003767259326
 115    -0.0000007747529194
 116     0.0000041395362706
 117    -0.0000021942985783
 118     0.1967618866235746
 119     0.0000032159742035
 120    -0.0000018698242956
 121     0.1712514958084514
 122     0.0000000738340656
 123     0.0059722123920571
 124     0.0077190765046322
 125     0.0000003524459384
 126     0.0000000219252978
 127     0.0000000232918127
 128    -0.0000000691664692
 129    -0.0000004335589678
 130     0.0000017781416244
 131    -0.0000035372008170
 132     0.1220789282368879
 133     0.0000020195221894
 134    -0.0000029679611528
 135     0.1171137366974742
 136    -0.0000004460289518
 137    -0.0095128885540265
 138    -0.0187547169931670
 139    -0.0000004763237953
 140    -0.0000001455155401
 141     0.0000009529072280
 142    -0.0000004755976417
 143    -0.0000002778062879
 144     0.0000003744710203
 145    -0.0092497888670805
 146     0.0000000384441878
 147    -0.0000002653314129
 148     0.0000001713926802
 149     0.0000000105086488
 150     0.0072720918241582
 151     0.0000003902149676
 152     0.0000003913355866
 153    -0.0000001244477768
 154     0.0000001779539561
 155    -0.0062230913005731
 156     0.0000004391984784
 157     0.0000001960521362
 158     0.0000000425455773
 159    -0.0000001196764982
 160     0.0046452057385786
 161    -0.0000003655004933
 162    -0.0000004408871328
 163    -0.0000000214623878
 164     0.0000001506390270
 165    -0.0054548501511854
 166    -0.0000000047260553
 167     0.0000001423495592
 168    -0.0000000169665615
 169    -0.0000001558718363
 170     0.0060996439692777
