cn1504: starting in /dev/shm/ORUNDIR_304673 /opt/software/pc2/ORCA/orca_6_1_0_linux_x86-64_shared_openmpi418_avx2/orca C10H6.inp
mpirun is: /opt/software/pc2/ORCA/orca_6_1_0_linux_x86-64_shared_openmpi418_avx2/mpirun
Directory contents is:
total 4300
-rw-r--r-- 1 xinwu user 2198604 Nov  7 13:20 C10H6.gbw
-rw-r--r-- 1 xinwu user    1366 Nov  7 13:20 C10H6.inp
-rw-r--r-- 1 xinwu user 2198604 Nov  7 13:20 C10H6.mp2nat

                                 *****************
                                 * O   R   C   A *
                                 *****************

                                            #,                                       
                                            ###                                      
                                            ####                                     
                                            #####                                    
                                            ######                                   
                                           ########,                                 
                                     ,,################,,,,,                         
                               ,,#################################,,                 
                          ,,##########################################,,             
                       ,#########################################, ''#####,          
                    ,#############################################,,   '####,        
                  ,##################################################,,,,####,       
                ,###########''''           ''''###############################       
              ,#####''   ,,,,##########,,,,          '''####'''          '####       
            ,##' ,,,,###########################,,,                        '##       
           ' ,,###''''                  '''############,,,                           
         ,,##''                                '''############,,,,        ,,,,,,###''
      ,#''                                            '''#######################'''  
     '                                                          ''''####''''         
             ,#######,   #######,   ,#######,      ##                                
            ,#'     '#,  ##    ##  ,#'     '#,    #''#        ,####,    ,#,          
            ##       ##  ##   ,#'  ##            #'  '#       #'       ,# #          
            ##       ##  #######   ##           ,######,      #####,      #          
            '#,     ,#'  ##    ##  '#,     ,#' ,#      #,     #,   #      #          
             '#######'   ##     ##  '#######'  #'      '#     '####' #    #          



                #########################################################
                #                        -***-                          #
                #          Department of theory and spectroscopy        #
                #                                                       #
                #                      Frank Neese                      #
                #                                                       #
                #     Directorship, Architecture, Infrastructure        #
                #                    SHARK, DRIVERS                     #
                #        Core code/Algorithms in most modules           #
                #                                                       #
                #        Max Planck Institute fuer Kohlenforschung      #
                #                Kaiser Wilhelm Platz 1                 #
                #                 D-45470 Muelheim/Ruhr                 #
                #                      Germany                          #
                #                                                       #
                #                  All rights reserved                  #
                #                        -***-                          #
                #########################################################


                         Program Version 6.1.0  -  RELEASE   -
                                (GIT: $679e74b$)
                          ($2025-06-10 18:02:51 +0200$)


 With contributions from (in alphabetic order):
[Max-Planck-Institut fuer Kohlenforschung]                               
  Daniel Aravena         : Magnetic Suceptibility                        
  Michael Atanasov       : Ab Initio Ligand Field Theory (pilot matlab implementation)
  Alexander A. Auer      : GIAO ZORA, VPT2 properties, NMR spectrum      
  Ute Becker             : All parallelization in ORCA, NUMFREQ, NUMCALC 
  Giovanni Bistoni       : ED, misc. LED, open-shell LED, HFLD           
  Dmytro Bykov           : pre 5.0 version of the SCF Hessian            
  Marcos Casanova-Páez   : Triplet and SCS-CIS(D). UHF-(DLPNO)-IP/EA/STEOM-CCSD. UHF-CVS-IP/STEOM-CCSD   
  Vijay G. Chilkuri      : MRCI spin determinant printing, contributions to CSF-ICE 
  Pauline Colinet        : FMM embedding                                 
  Dipayan Datta          : RHF DLPNO-CCSD density                        
  Achintya Kumar Dutta   : EOM-CC, STEOM-CC                              
  Nicolas Foglia         : Exact transition moments, OPA infrastructure, MCD improvements    
  Dmitry Ganyushin       : Spin-Orbit,Spin-Spin,Magnetic field MRCI      
  Miquel Garcia-Rates    : C-PCM and meta-GGA Hessian, CCSD/C-PCM, Gaussian charge scheme 
  Tiago L. C. Gouveia    : GS-ROHF, GS-ROCIS                             
  Yang Guo               : DLPNO-NEVPT2, F12-NEVPT2, CIM, IAO-localization        
  Andreas Hansen         : Spin unrestricted coupled pair/coupled cluster methods 
  Ingolf Harden          : AUTO-CI MPn and infrastructure                
  Benjamin Helmich-Paris : MC-RPA, TRAH-(SCF,CASSCF), AVAS, COSX integrals, SCF dyn. polar., MC-PDFT, srDFT 
  Lee Huntington         : MR-EOM, pCC                                   
  Robert Izsak           : Overlap fitted RIJCOSX, COSX-SCS-MP3, EOM     
  Riya Kayal             : Wick's Theorem for AUTO-CI, AUTO-CI UHF-CCSDT 
  Emily Kempfer          : AUTO-CI RHF CISDT and CCSDT, approximate NEVPT4
  Christian Kollmar      : KDIIS, OOCD, Brueckner-CCSD(T), CCSD density, CASPT2, CASPT2-K, improved NEVPT2 
  Axel Koslowski         : Symmetry handling                             
  Simone Kossmann        : meta-GGA functionals, TD-DFT gradient, OOMP2, (MP2 Hessian; deprecated post 5.0) 
  Lucas Lang             : DCDCAS, Hyperfine gauge corrections, ICE-SOC+SSC
  Marvin Lechner         : AUTO-CI (C++ implementation), FIC-MRCC        
  Spencer Leger          : CASSCF response                               
  Dagmar Lenk            : GEPOL surface, SMD, ORCA-2-JSON               
  Dimitrios Liakos       : Extrapolation schemes; Compound Job, Property file
  Dimitrios Manganas     : Further ROCIS development; embedding schemes. LFT, Crystal Embedding 
  Dimitrios Pantazis     : SARC Basis sets                               
  Anastasios Papadopoulos: AUTO-CI, single reference methods and gradients 
  Taras Petrenko         : pre 6.0 DFT Hessian and TD-DFT gradient,  ECA, NRVS 
  Petra Pikulova         : Analytic Raman intensities                    
  Peter Pinski           : DLPNO-MP2, DLPNO-MP2 Gradient                 
  Shashank Vittal Rao    : ES-AILFT, MagRelax                            
  Christoph Reimann      : Effective Core Potentials                     
  Marius Retegan         : Local ZFS, SOC                                
  Christoph Riplinger    : Optimizer, TS searches, QM/MM, DLPNO-CCSD(T), (RO)-DLPNO pert. Triples 
  Michael Roemelt        : Original ROCIS implementation, recursive CI coupling coefficients
  Masaaki Saitow         : Open-shell DLPNO-CCSD energy and density      
  Barbara Sandhoefer     : DKH picture change effects                    
  Yorick L. A. Schmerwitz: GMF and freeze-and-release deltaSCF, NEB S-IDPP initial path                    
  Kantharuban Sivalingam : CASSCF convergence/infrastructure, NEVPT2, NEVPT3, NEVPT4(SD), FIC-MRCI and CEPA variants
  Bernardo de Souza      : ESD, SOC TD-DFT                               
  Georgi L. Stoychev     : AutoAux, RI-MP2 NMR, DLPNO-MP2 response, X2C  
  Van Anh Tran           : RI-MP2 g-tensors                              
  Willem Van den Heuvel  : Paramagnetic NMR                              
  Zikuan Wang            : NOTCH, Electric field optimization            
  Frank Wennmohs         : Technical directorship and infrastructure     
  Hang Xu                : AUTO-CI-Response properties                   
                                                                         
[FACCTs GmbH]                                                            
  Markus Bursch, Nicolas Foglia, Miquel Garcia-Rates, Ingolf Harden, Hagen Neugebauer, Anastasios Papadopoulos, 
  Christoph Riplinger, Bernardo de Souza, Georgi L. Stoychev                                                    
                                                                 
  APM, various basis sets, CI-OPT, improved COSX, DLPNO-Multilevel,           
  DOCKER, DRACO, updates on ESD, Fragmentator, GOAT, IRC, LR-CPCM, L-BFGS, MBIS, meta-GGA TD-DFT gradient, ML-optimized integration grids, 
  MM, NACMEs, nearIR, NEB, NEB-TS, NL-DFT gradient (VV10), 2- and 3-layer-ONIOM, interface openCOSMO-RS, QMMM,   
  Crystal-QMMM, RESP, rigid body optimization, SF, symmetry and pop. for TD-DFT, various functionals, SOLVATOR                                   
                                                                         
[Other institutions]                                                     
  V. Asgeirsson          : NEB                                           
  Christoph Bannwarth    : sTDA-DFT, sTD-DFT, PBEh-3c, B97-3c, D3        
  Giovanni Bistoni       : ETS/NOCV, ADLD/ADEX, COVALED                  
  Martin Brehm           : Molecular dynamics                            
  Ronald Cardenas        : ETS/NOCV                                      
  Martina Colucci        : COVALED                                       
  Sebastian Ehlert       : rSCAN, r2SCAN, r2SCAN-3c, D4, dhf basis sets  
  Marvin Friede          : D4 for Fr, Ra, Ac-Lr                          
  Lars Goerigk           : TD-DFT with DH, B97 family of functionals     
  Stefan Grimme          : VdW corrections, initial TS optimization, DFT functionals, gCP, sTDA/sTD-DF 
  Waldemar Hujo          : DFT-NL                                        
  H. Jonsson             : NEB                                           
  Holger Kruse           : gCP                                           
  Marcel Mueller         : wB97X-3c, vDZP basis set                      
  Hagen Neugebauer       : wr2SCAN, Native XTB                           
  Gianluca Regni         : ADLD/ADEX                                     
  Tobias Risthaus        : pre 6.0 range-separated hybrid DFT and stability analysis
  Lukas Wittmann         : regularized MP2, r2SCAN double-hybrids, wr2SCAN        
                                                                         
We gratefully acknowledge several colleagues who have allowed us to      
interface, adapt or use parts of their codes:                            
  Ed Valeev, F. Pavosevic, A. Kumar             : LibInt (2-el integral package), F12 methods 
  Garnet Chan, S. Sharma, J. Yang, R. Olivares  : DMRG                   
  Ulf Ekstrom                                   : XCFun DFT Library      
  Mihaly Kallay                                 : mrcc  (arbitrary order and MRCC methods)
  Frank Weinhold                                : gennbo (NPA and NBO analysis)           
  Simon Mueller                                 : openCOSMO-RS                            
  Christopher J. Cramer and Donald G. Truhlar   : smd solvation model                     
  S Lehtola, MJT Oliveira, MAL Marques          : LibXC Library                           
  Liviu Ungur et al                             : ANISO software                          


 Your calculation uses the libint2 library for the computation of 2-el integrals
 For citations please refer to: http://libint.valeyev.net

 Your ORCA version has been built with support for libXC version: 7.0.0
 For citations please refer to: https://libxc.gitlab.io

 This ORCA versions uses:
   CBLAS   interface :  Fast vector & matrix operations
   LAPACKE interface :  Fast linear algebra routines
   SCALAPACK package :  Parallel linear algebra routines
   Shared memory     :  Shared parallel matrices
   BLAS/LAPACK       :  OpenBLAS 0.3.29  USE64BITINT DYNAMIC_ARCH NO_AFFINITY Cooperlake SINGLE_THREADED
        Core in use  :  Cooperlake
   Copyright (c) 2011-2014, The OpenBLAS Project


  ***********************************
  * Starting time: Fri Nov  7 13:20:09 2025
  * Host name:     cn1504
  * Process ID:    2641420
  * Working dir.:  /dev/shm/ORUNDIR_304673
  ***********************************

NOTE: MaxCore=3500 MB was set to SCF,MP2,MDCI,CIPSI,MRCI,RASCI and CIS
      => If you want to overwrite this, your respective input block should be placed after the MaxCore statement
================================================================================

----- Orbital basis set information -----
Your calculation utilizes the basis: def2-TZVP
   F. Weigend and R. Ahlrichs, Phys. Chem. Chem. Phys. 7, 3297 (2005).

----- AuxC basis set information -----
Your calculation utilizes the auxiliary basis: def2-TZVP/C
  H-La, Hf-Rn : A. Hellweg, C. Hattig, S. Hofener and W. Klopper, Theor. Chem. Acc. 117, 587 (2007).
        Ce-Lu : J. Chmela and M. E. Harding, Mol. Phys. (2018).

================================================================================
                                        WARNINGS
                       Please study these warnings very carefully!
================================================================================


================================================================================
                                       INPUT FILE
================================================================================
NAME = C10H6.inp
|  1> ! def2-TZVP def2-TZVP/C TightSCF
|  2> ! MORead
|  3> 
|  4> %moinp "C10H6.mp2nat"
|  5> 
|  6> %pal nprocs 192 end
|  7> 
|  8> %maxcore 3500
|  9> 
| 10> %casscf nel  12
| 11>         norb 13
| 12>         mult  1
| 13> end
| 14> 
| 15> *xyz 0 1
| 16>   C          -4.27618844408315     -1.58032440396899      0.00005070070495
| 17>   C          -3.34005683321128     -0.59584132236662      0.00006444386820
| 18>   C          -1.95210407783235     -0.77060865717285      0.00003831960105
| 19>   C          -3.86217366608977     -2.94329564853906      0.00000509552673
| 20>   C          -2.51634948899400     -3.21163359254876     -0.00000919099687
| 21>   C          -1.58244046595247     -2.14469616532146      0.00000031880442
| 22>   C          -0.83919744716565      0.07696362908260      0.00003881218711
| 23>   C           0.46452064090405     -0.30493582728661      0.00000531002164
| 24>   C          -0.23926938339869     -2.59903461086858     -0.00003638832891
| 25>   C           0.79025094019273     -1.69165677621172     -0.00003787855029
| 26>   H          -1.81673421307623     -3.84435222983868     -0.00004321961644
| 27>   H          -0.24242044715056     -3.66653818011380     -0.00004337035361
| 28>   H           1.25868166028411      0.43175218286707      0.00001039634415
| 29>   H           1.82449823089166     -2.01050257282053     -0.00005871686593
| 30>   H          -4.59682353508089     -3.73804232947048     -0.00001526730299
| 31>   H          -5.33277629951192     -1.34153120324475      0.00005835312942
| 32> *
| 33> 
| 34>                          ****END OF INPUT****
================================================================================

                       ****************************
                       * Single Point Calculation *
                       ****************************

---------------------------------
CARTESIAN COORDINATES (ANGSTROEM)
---------------------------------
  C     -4.276188   -1.580324    0.000051
  C     -3.340057   -0.595841    0.000064
  C     -1.952104   -0.770609    0.000038
  C     -3.862174   -2.943296    0.000005
  C     -2.516349   -3.211634   -0.000009
  C     -1.582440   -2.144696    0.000000
  C     -0.839197    0.076964    0.000039
  C      0.464521   -0.304936    0.000005
  C     -0.239269   -2.599035   -0.000036
  C      0.790251   -1.691657   -0.000038
  H     -1.816734   -3.844352   -0.000043
  H     -0.242420   -3.666538   -0.000043
  H      1.258682    0.431752    0.000010
  H      1.824498   -2.010503   -0.000059
  H     -4.596824   -3.738042   -0.000015
  H     -5.332776   -1.341531    0.000058

----------------------------
CARTESIAN COORDINATES (A.U.)
----------------------------
  NO LB      ZA    FRAG     MASS         X           Y           Z
   0 C     6.0000    0    12.011   -8.080825   -2.986380    0.000096
   1 C     6.0000    0    12.011   -6.311793   -1.125977    0.000122
   2 C     6.0000    0    12.011   -3.688942   -1.456239    0.000072
   3 C     6.0000    0    12.011   -7.298451   -5.562023    0.000010
   4 C     6.0000    0    12.011   -4.755211   -6.069108   -0.000017
   5 C     6.0000    0    12.011   -2.990379   -4.052888    0.000001
   6 C     6.0000    0    12.011   -1.585853    0.145440    0.000073
   7 C     6.0000    0    12.011    0.877817   -0.576245    0.000010
   8 C     6.0000    0    12.011   -0.452154   -4.911464   -0.000069
   9 C     6.0000    0    12.011    1.493358   -3.196768   -0.000072
  10 H     1.0000    0     1.008   -3.433130   -7.264773   -0.000082
  11 H     1.0000    0     1.008   -0.458108   -6.928753   -0.000082
  12 H     1.0000    0     1.008    2.378564    0.815893    0.000020
  13 H     1.0000    0     1.008    3.447802   -3.799299   -0.000111
  14 H     1.0000    0     1.008   -8.686738   -7.063876   -0.000029
  15 H     1.0000    0     1.008  -10.077487   -2.535127    0.000110

--------------------------------
INTERNAL COORDINATES (ANGSTROEM)
--------------------------------
 C      0   0   0     0.000000000000     0.00000000     0.00000000
 C      1   0   0     1.358509967215     0.00000000     0.00000000
 C      2   1   0     1.398912603833   126.38112123     0.00000000
 C      1   2   3     1.424464408822   119.54548585     0.00000000
 C      4   1   2     1.372314821043   118.17270987     0.00000000
 C      5   4   1     1.417935660398   119.92014810     0.00000000
 C      3   2   1     1.398906697750   135.53090632   179.99961053
 C      7   3   2     1.358502134359   126.38072443   180.00022196
 C      6   5   4     1.417932290858   112.50770527   180.00085544
 C      9   6   5     1.372314334078   119.91982185   179.99975124
 H      5   4   1     0.943289144128   149.15049294   180.00127069
 H      9   6   5     1.067508219923   108.51939647     0.00000000
 H      8   7   3     1.083236331108   120.82311441   180.00009030
 H     10   9   6     1.082280047292   121.47445305   179.99957986
 H      4   1   2     1.082281256086   120.35361839   180.00054852
 H      1   2   3     1.083235934139   120.82275254   180.00093889

---------------------------
INTERNAL COORDINATES (A.U.)
---------------------------
 C      0   0   0     0.000000000000     0.00000000     0.00000000
 C      1   0   0     2.567211788240     0.00000000     0.00000000
 C      2   1   0     2.643561706534   126.38112123     0.00000000
 C      1   2   3     2.691847620192   119.54548585     0.00000000
 C      4   1   2     2.593299181293   118.17270987     0.00000000
 C      5   4   1     2.679510073672   119.92014810     0.00000000
 C      3   2   1     2.643550545656   135.53090632   179.99961053
 C      7   3   2     2.567196986286   126.38072443   180.00022196
 C      6   5   4     2.679503706166   112.50770527   180.00085544
 C      9   6   5     2.593298261062   119.91982185   179.99975124
 H      5   4   1     1.782558147503   149.15049294   180.00127069
 H      9   6   5     2.017298181364   108.51939647     0.00000000
 H      8   7   3     2.047020004108   120.82311441   180.00009030
 H     10   9   6     2.045212889590   121.47445305   179.99957986
 H      4   1   2     2.045215173879   120.35361839   180.00054852
 H      1   2   3     2.047019253945   120.82275254   180.00093889

---------------------
BASIS SET INFORMATION
---------------------
There are 2 groups of distinct atoms

 Group   1 Type C   : 11s6p2d1f contracted to 5s3p2d1f pattern {62111/411/11/1}
 Group   2 Type H   : 5s1p contracted to 3s1p pattern {311/1}

Atom   0C    basis set group =>   1
Atom   1C    basis set group =>   1
Atom   2C    basis set group =>   1
Atom   3C    basis set group =>   1
Atom   4C    basis set group =>   1
Atom   5C    basis set group =>   1
Atom   6C    basis set group =>   1
Atom   7C    basis set group =>   1
Atom   8C    basis set group =>   1
Atom   9C    basis set group =>   1
Atom  10H    basis set group =>   2
Atom  11H    basis set group =>   2
Atom  12H    basis set group =>   2
Atom  13H    basis set group =>   2
Atom  14H    basis set group =>   2
Atom  15H    basis set group =>   2
---------------------------------
AUXILIARY/C BASIS SET INFORMATION
---------------------------------
There are 2 groups of distinct atoms

 Group   1 Type C   : 8s6p5d3f1g contracted to 8s6p4d3f1g pattern {11111111/111111/2111/111/1}
 Group   2 Type H   : 4s3p2d contracted to 4s2p1d pattern {1111/21/2}

Atom   0C    basis set group =>   1
Atom   1C    basis set group =>   1
Atom   2C    basis set group =>   1
Atom   3C    basis set group =>   1
Atom   4C    basis set group =>   1
Atom   5C    basis set group =>   1
Atom   6C    basis set group =>   1
Atom   7C    basis set group =>   1
Atom   8C    basis set group =>   1
Atom   9C    basis set group =>   1
Atom  10H    basis set group =>   2
Atom  11H    basis set group =>   2
Atom  12H    basis set group =>   2
Atom  13H    basis set group =>   2
Atom  14H    basis set group =>   2
Atom  15H    basis set group =>   2


           ************************************************************
           *        Program running with 192 parallel MPI-processes   *
           *              working on a common directory               *
           ************************************************************
------------------------------------------------------------------------------
                             ORCA STARTUP CALCULATIONS
------------------------------------------------------------------------------
------------------------------------------------------------------------------
                   ___                                                        
                  /   \      - P O W E R E D   B Y -                         
                 /     \                                                     
                 |  |  |   _    _      __       _____    __    __             
                 |  |  |  | |  | |    /  \     |  _  \  |  |  /  |          
                  \  \/   | |  | |   /    \    | | | |  |  | /  /          
                 / \  \   | |__| |  /  /\  \   | |_| |  |  |/  /          
                |  |  |   |  __  | /  /__\  \  |    /   |      \           
                |  |  |   | |  | | |   __   |  |    \   |  |\   \          
                \     /   | |  | | |  |  |  |  | |\  \  |  | \   \       
                 \___/    |_|  |_| |__|  |__|  |_| \__\ |__|  \__/        
                                                                              
                      - O R C A' S   B I G   F R I E N D -                    
                                      &                                       
                       - I N T E G R A L  F E E D E R -                       
                                                                              
 v1 FN, 2020, v2 2021, v3 2022-2024                                           
------------------------------------------------------------------------------


----------------------
SHARK INTEGRAL PACKAGE
----------------------

Number of atoms                             ...     16
Number of basis functions                   ...    346
Number of shells                            ...    134
Maximum angular momentum                    ...      3
Integral batch strategy                     ... SHARK/LIBINT Hybrid
RI-J (if used) integral strategy            ... SPLIT-RIJ (Revised 2003 algorithm where possible)
Printlevel                                  ...      1
Contraction scheme used                     ... SEGMENTED contraction
Prescreening option                         ... SCHWARTZ
   Thresh                                   ... 2.500e-11
   Tcut                                     ... 2.500e-12
   Tpresel                                  ... 2.500e-12 
Coulomb Range Separation                    ... NOT USED
Exchange Range Separation                   ... NOT USED
Multipole approximations                    ... NOT USED
Finite Nucleus Model                        ... NOT USED
CABS basis                                  ... NOT available
Auxiliary Coulomb fitting basis             ... NOT available
Auxiliary J/K fitting basis                 ... NOT available
Auxiliary Correlation fitting basis         ... AVAILABLE
   # of basis functions in Aux-C            ...    850
   # of shells in Aux-C                     ...    262
   Maximum angular momentum in Aux-C        ...      4
Auxiliary 'external' fitting basis          ... NOT available

Checking pre-screening integrals            ... done (  0.0 sec) Dimension = 134
   => SHARK Basis and OBASIS are compatible. Storing Pre-screening
Shell pair information
Shell pair cut-off parameter TPreSel        ...   2.5e-12
Total number of shell pairs                 ...      9045
Shell pairs after pre-screening             ...      8254
Total number of primitive shell pairs       ...     28204
Primitive shell pairs kept                  ...     19119
          la=0 lb=0:   2005 shell pairs
          la=1 lb=0:   2251 shell pairs
          la=1 lb=1:    642 shell pairs
          la=2 lb=0:   1256 shell pairs
          la=2 lb=1:    695 shell pairs
          la=2 lb=2:    202 shell pairs
          la=3 lb=0:    614 shell pairs
          la=3 lb=1:    342 shell pairs
          la=3 lb=2:    192 shell pairs
          la=3 lb=3:     55 shell pairs

Checking whether 4 symmetric matrices of dimension 346 fit in memory
:Max Core in MB      =   3500.00
 MB in use           =     13.83
 MB left             =   3486.17
 MB needed           =      1.83
 Data fit in memory  = YES
Calculating RI/C V-Matrix + Cholesky decomp.... done (  0.0 sec)
Calculating Nuclear repulsion               ... done (  0.0 sec) ENN=    436.701954735011 Eh

Diagonalization of the overlap matrix:
Smallest eigenvalue                        ... 1.339e-05
Time for diagonalization                   ...    0.018 sec
Threshold for overlap eigenvalues          ... 1.000e-07
Number of eigenvalues below threshold      ... 0
Time for construction of square roots      ...    0.006 sec
Total time needed                          ...    0.026 sec

-------------------
DFT GRID GENERATION
-------------------

General Integration Accuracy     IntAcc      ... 4.388
Radial Grid Type                 RadialGrid  ... OptM3 with GC (2021)
Angular Grid (max. ang.)         AngularGrid ... 4 (Lebedev-302)
Angular grid pruning method      GridPruning ... 4 (adaptive)
Weight generation scheme         WeightScheme... mBecke (2022)
Basis function cutoff            BFCut       ... 1.0000e-11
Integration weight cutoff        WCut        ... 1.0000e-14
Partially contracted basis set               ... off
Rotationally invariant grid construction     ... off
Angular grids for H and He will be reduced by one unit

Total number of grid points                  ...    79235
Total number of batches                      ...     1246
Average number of points per batch           ...       63
Average number of grid points per atom       ...     4952
Grids setup in   0.4 sec
Initializing property integral containers    ... done (  0.0 sec)

SHARK setup successfully completed in   0.7 seconds

Maximum memory used throughout the entire STARTUP-calculation: 27.0 MB


           ************************************************************
           *        Program running with 192 parallel MPI-processes   *
           *              working on a common directory               *
           ************************************************************
-------------------------------------------------------------------------------
                                 ORCA GUESS
                   Start orbitals & Density for SCF / CASSCF
-------------------------------------------------------------------------------

------------
SCF SETTINGS
------------
Hamiltonian:
 Ab initio Hamiltonian  Method          .... Hartree-Fock(GTOs)


General Settings:
 Integral files         IntName         .... C10H6
 Hartree-Fock type      HFTyp           .... CASSCF
 Total Charge           Charge          ....    0
 Multiplicity           Mult            ....    1
 Number of Electrons    NEL             ....   66
 Basis Dimension        Dim             ....  346
 Nuclear Repulsion      ENuc            ....    436.7019547350 Eh

---------------------
INITIAL GUESS: MOREAD
---------------------
Guess MOs are being read from file: C10H6.mp2nat
Input Geometry matches current geometry (good)
Input basis set matches current basis set (good)
Occupation numbers will be reassigned to an Aufbau configuration
MOs were renormalized
Gram-Schmidt orthogonalization of all MOs with pivot on actives
                      ------------------
                      INITIAL GUESS DONE (   0.2 sec)
                      ------------------
             **** ENERGY FILE WAS UPDATED (C10H6.en.tmp) ****
Finished Guess after   6.7 sec
Maximum memory used throughout the entire GUESS-calculation: 18.9 MB


           ************************************************************
           *        Program running with 192 parallel MPI-processes   *
           *              working on a common directory               *
           ************************************************************
-------------------------------------------------------------------------------
                              ORCA-CASSCF
-------------------------------------------------------------------------------

Building the CAS space              ... done (201643 configurations for Mult=1)
----------------
GENERAL CI SETUP
----------------

Checking configurations                         ... done
Determining NSOMO,NDOMO and NVMO                ... done
Building up the tree                            ... done
Building N-1 electron tree                      ... done
Building RI configuration space                 ... done
Analyzing the RI configuration space            ... done
Determining NDOMO,NSOMO,NVMO for RI space       ... done
Determination of address arrays                 ... done
Looking for max. no of open shells              ... done
Setting up coupling coefficient container       ... Memory for address arrays  		      ... done
Make address arrays			      ... done
Memory for buffers 			      ... done
Setting up spin-function prototypes	      ... (MAXOPEN=12) 0 2 4 6 8 10 12 14 done
Trivial cases - DOMO's			      ... done (  0.2 MB)
Number of open shells			    ...  0
domo->virtual excitations			... done (  0.2 MB)
domo->somo excitations				... done (  0.2 MB)
somo->virtual excitations			... done (  0.2 MB)
somo->somo excitations				... done (  0.2 MB)
Number of open shells			    ...  2
domo->virtual excitations			... done (  0.2 MB)
domo->somo excitations				... done (  0.2 MB)
somo->virtual excitations			... done (  0.2 MB)
somo->somo excitations				... done (  0.2 MB)
Number of open shells			    ...  4
domo->virtual excitations			... done (  0.2 MB)
domo->somo excitations				... done (  0.2 MB)
somo->virtual excitations			... done (  0.2 MB)
somo->somo excitations				... done (  0.2 MB)
Number of open shells			    ...  6
domo->virtual excitations			... done (  0.2 MB)
domo->somo excitations				... done (  0.2 MB)
somo->virtual excitations			... done (  0.2 MB)
somo->somo excitations				... done (  0.2 MB)
Number of open shells			    ...  8
domo->virtual excitations			... done (  0.2 MB)
domo->somo excitations				... done (  0.2 MB)
somo->virtual excitations			... done (  0.2 MB)
somo->somo excitations				... done (  0.2 MB)
Number of open shells			    ... 10
domo->virtual excitations			... done (  0.2 MB)
domo->somo excitations				... done (  0.2 MB)
somo->virtual excitations			... done (  0.3 MB)
somo->somo excitations				... done (  0.3 MB)
Number of open shells			    ... 12
domo->virtual excitations			... done (  0.7 MB)
domo->somo excitations				... done (  0.8 MB)
somo->virtual excitations			... done (  1.0 MB)
somo->somo excitations				... done (  1.1 MB)
Coupling container construction done
done
Now recording sub-block dimensions              ... done

Memory used for TGeneralCI arrays =     1.0 MB
  Original space  =     0.1 MB
  RI       space  =     0.1 MB
  Address arrays  =     0.2 MB
  Coupling coeffs =     0.7 MB
Multiplicity                          ...       1
# of electrons                        ...      12
# of orbitals                         ...      13
# of roots requested                  ...       1
Configuration space:
# of configurations                   ...  201643
# of CSF's                            ...  736164
# of rejected configurations          ...       0
Min. # of SOMOs                       ...       0
Max. # of SOMOs                       ...      12
Max. # of DOMOs                       ...       6
Max. # of VMOs                        ...       7
RI Configuration space:
# of configurations                   ...  201643
# of CSF's                            ...  736164
# of rejected configurations          ...       0
Min. # of SOMOs                       ...       0
Max. # of SOMOs                       ...      12
Max. # of DOMOs                       ...       6
Max. # of VMOs                        ...       7
(N-1) Electron Configuration space:
# of configurations                   ...  171106
CSF dimensions:
      0 SOMOs give     1 CSFs
      2 SOMOs give     1 CSFs
      4 SOMOs give     2 CSFs
      6 SOMOs give     5 CSFs
      8 SOMOs give    14 CSFs
     10 SOMOs give    42 CSFs
     12 SOMOs give   132 CSFs


SYSTEM-SPECIFIC SETTINGS:
Number of active electrons          ...   12
Number of active orbitals           ...   13
Total number of electrons           ...   66
Total number of orbitals            ...  346

Determined orbital ranges:
   Internal       0 -   26 (  27 orbitals)
   Active        27 -   39 (  13 orbitals)
   External      40 -  345 ( 306 orbitals)
Number of rotation parameters      ...  12591

CI-STEP:
CI strategy                         ... General CI
Number of multiplicity blocks       ...    1
BLOCK  0 WEIGHT=   1.0000
  Multiplicity                      ...    1
  #(Configurations)                 ... 201643
  #(CSFs)                           ... 736164
  #(Roots)                          ...    1
    ROOT=0 WEIGHT=    1.000000

  PrintLevel                        ...    1
  N(GuessMat)                       ...      2048
  MaxDim(CI)                        ...        10
  MaxIter(CI)                       ...        64
  Energy Tolerance CI               ...  2.50e-09
  Residual Tolerance CI             ...  2.50e-09
  Shift(CI)                         ...  1.00e-04

INTEGRAL-TRANSFORMATION-STEP:
  Algorithm                         ... EXACT

ORBITAL-IMPROVEMENT-STEP:
  Algorithm                         ... SuperCI(PT)
  Default Parametrization           ... CAYLEY
  Act-Act rotations                 ... depends on algorithm used

  Note: SuperCI(PT) will ignore FreezeIE, FreezeAct and FreezeGrad. In general Default settings are encouraged.
        In conjunction with ShiftUp, ShiftDn or GradScaling the performance of SuperCI(PT) is less optimal.  

  MaxRot                            ... 2.00e-01 
  Max. no of vectors (DIIS)         ... 15
  DThresh (cut-off) metric          ... 1.00e-06
  Switch step at gradient           ...  3.00e-02 
  Switch step at iteration          ...        50   
  Switch step to                    ... SuperCI(PT)    

SCF-SETTINGS:
  Incremental                       ... on
  RIJCOSX approximation             ... off
  RI-JK approximation               ... off
  AO integral handling              ... DIRECT
  Integral Neglect Thresh           ...  2.50e-11
  Primitive cutoff TCut             ...  2.50e-12
  Energy convergence tolerance      ...  2.50e-08
  Orbital gradient convergence      ...  2.50e-04
  Max. number of iterations         ...        75  


FINAL ORBITALS:
  Active   Orbitals                 ... natural 
  Internal Orbitals                 ... canonical 
  External Orbitals                 ... canonical 

------------------
CAS-SCF ITERATIONS
------------------


MACRO-ITERATION   1: 
   --- Inactive Energy E0 = -361.39835395 Eh
CI-ITERATION   0: 
  -382.155989496   0.165692186835 (    0.08)
CI-ITERATION   1: 
  -382.176140080   0.061382176817 (    0.07)
CI-ITERATION   2: 
  -382.178556532   0.025155161202 (    0.07)
CI-ITERATION   3: 
  -382.178892421   0.010831768963 (    0.07)
CI-ITERATION   4: 
  -382.178945453   0.004483409978 (    0.07)
CI-ITERATION   5: 
  -382.178954092   0.001717486344 (    0.15)
CI-ITERATION   6: 
  -382.178955315   0.000689447843 (    0.07)
CI-ITERATION   7: 
  -382.178955497   0.000280774901 (    0.07)
CI-ITERATION   8: 
  -382.178955528   0.000108315647 (    0.07)
CI-ITERATION   9: 
  -382.178955533   0.000040596020 (    0.07)
   CI-PROBLEM SOLVED
   DENSITIES MADE

                 <<<<<<<<<<<<<<<<<<INITIAL CI STATE CHECK>>>>>>>>>>>>>>>>>>

BLOCK  0 MULT= 1 NROOTS= 1 
ROOT   0:  E=    -382.1789555331 Eh
      0.63912 [     0]: 2222220000000
      0.23119 [     8]: 2222202000000
      0.00992 [  2971]: 2212120101000
      0.00990 [   534]: 2221120110000
      0.00820 [   155]: 2222020200000
      0.00604 [  1309]: 2220220020000
      0.00556 [ 58278]: 1222221000000
      0.00511 [ 14477]: 2122120100100
      0.00493 [  3746]: 2211220011000
      0.00488 [   632]: 2221102110000
      0.00404 [  3069]: 2212102101000
      0.00343 [  2858]: 2212211100000
      0.00332 [    46]: 2222111001000
      0.00318 [   253]: 2222002200000
      0.00301 [    45]: 2222111010000
      0.00285 [ 15252]: 2121220010100

                 <<<<<<<<<<<<<<<<<<INITIAL CI STATE CHECK>>>>>>>>>>>>>>>>>>

   E(CAS)=  -382.178955533 Eh DE=    0.000000e+00
   --- Energy gap subspaces: Ext-Act = -0.045   Act-Int = -0.036
   N(occ)=  1.98559 1.97308 1.94750 1.93668 1.91138 1.45927 0.54841 0.08847 0.06578 0.05154 0.02594 0.00137 0.00499
   ||g|| =     2.626241e-01 Max(G)=    9.047208e-02 Rot=64,32
   --- Orbital Update [SuperCI(PT)]
   --- Canonicalize Internal Space
   --- Canonicalize External Space
   --- SX_PT (Skipped TA=0 IT=0): ||X|| =      0.972546274 Max(X)(67,38) =     -0.264430153 
   --- SFit(Active Orbitals)

MACRO-ITERATION   2: 
   --- Inactive Energy E0 = -361.26396831 Eh
CI-ITERATION   0: 
  -382.173084416   0.206580914499 (    0.07)
CI-ITERATION   1: 
  -382.203074190   0.073621172770 (    0.07)
CI-ITERATION   2: 
  -382.206458462   0.033548226108 (    0.07)
CI-ITERATION   3: 
  -382.207053879   0.015644304120 (    0.07)
CI-ITERATION   4: 
  -382.207160163   0.006745444139 (    0.07)
CI-ITERATION   5: 
  -382.207179510   0.002671214158 (    0.07)
CI-ITERATION   6: 
  -382.207182557   0.001076417101 (    0.08)
CI-ITERATION   7: 
  -382.207183022   0.000450424211 (    0.07)
CI-ITERATION   8: 
  -382.207183103   0.000191124310 (    0.07)
CI-ITERATION   9: 
  -382.207183118   0.000083793780 (    0.07)
CI-ITERATION  10: 
  -382.207183120   0.000039259102 (    0.12)
   CI-PROBLEM SOLVED
   DENSITIES MADE
   E(CAS)=  -382.207183120 Eh DE=   -2.822759e-02
   --- Energy gap subspaces: Ext-Act = -0.120   Act-Int = -0.064
   N(occ)=  1.97320 1.96853 1.93850 1.92882 1.89627 1.32339 0.68916 0.10370 0.07382 0.06046 0.03059 0.00642 0.00715
   ||g|| =     9.832521e-02 Max(G)=    2.227570e-02 Rot=33,24
   --- Orbital Update [SuperCI(PT)]
   --- Canonicalize Internal Space
   --- Canonicalize External Space
   --- SX_PT (Skipped TA=0 IT=0): ||X|| =      0.506237731 Max(X)(67,38) =      0.205209024 
   --- SFit(Active Orbitals)

MACRO-ITERATION   3: 
   --- Inactive Energy E0 = -361.07096224 Eh
CI-ITERATION   0: 
  -382.175366092   0.233562816852 (    0.07)
CI-ITERATION   1: 
  -382.211313535   0.079699480871 (    0.07)
CI-ITERATION   2: 
  -382.215088399   0.037046021701 (    0.07)
CI-ITERATION   3: 
  -382.215805894   0.017695163592 (    0.07)
CI-ITERATION   4: 
  -382.215935924   0.007696833616 (    0.07)
CI-ITERATION   5: 
  -382.215960063   0.003148950759 (    0.07)
CI-ITERATION   6: 
  -382.215964118   0.001323706630 (    0.07)
CI-ITERATION   7: 
  -382.215964804   0.000561571986 (    0.07)
CI-ITERATION   8: 
  -382.215964926   0.000238553293 (    0.07)
CI-ITERATION   9: 
  -382.215964948   0.000107861000 (    0.07)
CI-ITERATION  10: 
  -382.215964951   0.000052541129 (    0.12)
CI-ITERATION  11: 
  -382.215964953   0.000027570810 (    0.07)
   CI-PROBLEM SOLVED
   DENSITIES MADE
   E(CAS)=  -382.215964953 Eh DE=   -8.781833e-03
   --- Energy gap subspaces: Ext-Act = -0.179   Act-Int = -0.090
   N(occ)=  1.96766 1.96700 1.93566 1.92746 1.89328 1.28061 0.73371 0.10734 0.07456 0.06329 0.03217 0.00947 0.00779
   ||g|| =     4.219847e-02 Max(G)=    9.941686e-03 Rot=33,24
   --- Orbital Update [SuperCI(PT)]
   --- Canonicalize Internal Space
   --- Canonicalize External Space
   --- SX_PT (Skipped TA=0 IT=0): ||X|| =      0.228148910 Max(X)(29,25) =     -0.067150612 
   --- SFit(Active Orbitals)

MACRO-ITERATION   4: 
   --- Inactive Energy E0 = -361.01477114 Eh
CI-ITERATION   0: 
  -382.175678525   0.241889953202 (    0.07)
CI-ITERATION   1: 
  -382.213843208   0.082940375538 (    0.07)
CI-ITERATION   2: 
  -382.217848972   0.038908929749 (    0.07)
CI-ITERATION   3: 
  -382.218622611   0.018722335933 (    0.07)
CI-ITERATION   4: 
  -382.218765902   0.008198849654 (    0.07)
CI-ITERATION   5: 
  -382.218792634   0.003376706060 (    0.07)
CI-ITERATION   6: 
  -382.218797208   0.001414160298 (    0.07)
CI-ITERATION   7: 
  -382.218797983   0.000597392612 (    0.07)
CI-ITERATION   8: 
  -382.218798122   0.000248641636 (    0.07)
CI-ITERATION   9: 
  -382.218798145   0.000111525121 (    0.07)
CI-ITERATION  10: 
  -382.218798149   0.000055209571 (    0.12)
CI-ITERATION  11: 
  -382.218798150   0.000029504290 (    0.07)
   CI-PROBLEM SOLVED
   DENSITIES MADE
   E(CAS)=  -382.218798150 Eh DE=   -2.833198e-03
   --- Energy gap subspaces: Ext-Act = -0.182   Act-Int = -0.088
   N(occ)=  1.96589 1.96624 1.93449 1.92708 1.89298 1.27423 0.74051 0.10796 0.07479 0.06430 0.03289 0.01051 0.00813
   ||g|| =     2.798879e-02 Max(G)=    8.176973e-03 Rot=29,25
   --- Orbital Update [SuperCI(PT)]
   --- Canonicalize Internal Space
   --- Canonicalize External Space
   --- SX_PT (Skipped TA=0 IT=0): ||X|| =      0.184854070 Max(X)(29,25) =     -0.060247460 
   --- SFit(Active Orbitals)

MACRO-ITERATION   5: 
   --- Inactive Energy E0 = -360.93464890 Eh
CI-ITERATION   0: 
  -382.175616964   0.250675117723 (    0.07)
CI-ITERATION   1: 
  -382.215999358   0.085801514654 (    0.07)
CI-ITERATION   2: 
  -382.220267844   0.040640036857 (    0.07)
CI-ITERATION   3: 
  -382.221097558   0.019370877811 (    0.07)
CI-ITERATION   4: 
  -382.221248100   0.008501429065 (    0.07)
CI-ITERATION   5: 
  -382.221275817   0.003567109237 (    0.07)
CI-ITERATION   6: 
  -382.221280704   0.001534247234 (    0.07)
CI-ITERATION   7: 
  -382.221281577   0.000660226904 (    0.07)
CI-ITERATION   8: 
  -382.221281738   0.000281141733 (    0.07)
CI-ITERATION   9: 
  -382.221281765   0.000122727803 (    0.07)
CI-ITERATION  10: 
  -382.221281770   0.000060876302 (    0.12)
CI-ITERATION  11: 
  -382.221281772   0.000032212189 (    0.07)
   CI-PROBLEM SOLVED
   DENSITIES MADE
   E(CAS)=  -382.221281772 Eh DE=   -2.483622e-03
   --- Energy gap subspaces: Ext-Act = -0.205   Act-Int = -0.092
   N(occ)=  1.96438 1.96520 1.93342 1.92627 1.89299 1.26624 0.74897 0.10844 0.07528 0.06516 0.03392 0.01130 0.00841
   ||g|| =     1.867938e-02 Max(G)=    6.018694e-03 Rot=29,25
   --- Orbital Update [SuperCI(PT)]
   --- Canonicalize Internal Space
   --- Canonicalize External Space
   --- SX_PT (Skipped TA=0 IT=0): ||X|| =      0.124015791 Max(X)(29,25) =     -0.043740051 
   --- SFit(Active Orbitals)

MACRO-ITERATION   6: 
   --- Inactive Energy E0 = -360.85773398 Eh
CI-ITERATION   0: 
  -382.176963110   0.257011660800 (    0.07)
CI-ITERATION   1: 
  -382.218205543   0.084736502402 (    0.07)
CI-ITERATION   2: 
  -382.222284423   0.038516721472 (    0.07)
CI-ITERATION   3: 
  -382.223030688   0.017428071196 (    0.07)
CI-ITERATION   4: 
  -382.223154273   0.007653453217 (    0.07)
CI-ITERATION   5: 
  -382.223175676   0.003363310315 (    0.07)
CI-ITERATION   6: 
  -382.223179785   0.001497202990 (    0.07)
CI-ITERATION   7: 
  -382.223180585   0.000650330097 (    0.07)
CI-ITERATION   8: 
  -382.223180745   0.000270607501 (    0.07)
CI-ITERATION   9: 
  -382.223180771   0.000120259398 (    0.07)
CI-ITERATION  10: 
  -382.223180776   0.000060281805 (    0.12)
CI-ITERATION  11: 
  -382.223180778   0.000033619015 (    0.07)
   CI-PROBLEM SOLVED
   DENSITIES MADE
   E(CAS)=  -382.223180778 Eh DE=   -1.899006e-03
   --- Energy gap subspaces: Ext-Act = -0.207   Act-Int = -0.098
   N(occ)=  1.96303 1.96411 1.93330 1.92523 1.89390 1.26436 0.75121 0.10803 0.07609 0.06503 0.03491 0.01223 0.00857
   ||g|| =     1.416760e-02 Max(G)=    3.601706e-03 Rot=35,25
   --- Orbital Update [SuperCI(PT)]
   --- Canonicalize Internal Space
   --- Canonicalize External Space
   --- SX_PT (Skipped TA=0 IT=0): ||X|| =      0.102427669 Max(X)(65,38) =      0.035669947 
   --- SFit(Active Orbitals)

MACRO-ITERATION   7: 
   --- Inactive Energy E0 = -360.82213569 Eh
CI-ITERATION   0: 
  -382.176612461   0.260786647297 (    0.07)
CI-ITERATION   1: 
  -382.218675590   0.085749793217 (    0.08)
CI-ITERATION   2: 
  -382.222844801   0.039176566451 (    0.07)
CI-ITERATION   3: 
  -382.223614636   0.017724783358 (    0.07)
CI-ITERATION   4: 
  -382.223742074   0.007762556707 (    0.07)
CI-ITERATION   5: 
  -382.223764094   0.003438703033 (    0.07)
CI-ITERATION   6: 
  -382.223768389   0.001544061553 (    0.07)
CI-ITERATION   7: 
  -382.223769244   0.000678360669 (    0.07)
CI-ITERATION   8: 
  -382.223769418   0.000286042850 (    0.07)
CI-ITERATION   9: 
  -382.223769447   0.000129345346 (    0.07)
CI-ITERATION  10: 
  -382.223769452   0.000065338248 (    0.12)
CI-ITERATION  11: 
  -382.223769455   0.000036820149 (    0.07)
   CI-PROBLEM SOLVED
   DENSITIES MADE
   E(CAS)=  -382.223769455 Eh DE=   -5.886771e-04
   --- Energy gap subspaces: Ext-Act = -0.218   Act-Int = -0.103
   N(occ)=  1.96264 1.96370 1.93344 1.92487 1.89425 1.26308 0.75253 0.10787 0.07633 0.06483 0.03528 0.01263 0.00856
   ||g|| =     1.157552e-02 Max(G)=   -2.515725e-03 Rot=27,13
   --- Orbital Update [SuperCI(PT)]
   --- Canonicalize Internal Space
   --- Canonicalize External Space
   --- SX_PT (Skipped TA=0 IT=0): ||X|| =      0.100633164 Max(X)(65,38) =      0.030693793 
   --- SFit(Active Orbitals)

MACRO-ITERATION   8: 
   --- Inactive Energy E0 = -360.81788057 Eh
CI-ITERATION   0: 
  -382.176617934   0.261409496035 (    0.07)
CI-ITERATION   1: 
  -382.218808882   0.085825663741 (    0.07)
CI-ITERATION   2: 
  -382.222980152   0.039226045235 (    0.07)
CI-ITERATION   3: 
  -382.223752526   0.017704022571 (    0.08)
CI-ITERATION   4: 
  -382.223880062   0.007711882758 (    0.07)
CI-ITERATION   5: 
  -382.223901855   0.003416628821 (    0.07)
CI-ITERATION   6: 
  -382.223906091   0.001538467709 (    0.07)
CI-ITERATION   7: 
  -382.223906937   0.000677517949 (    0.07)
CI-ITERATION   8: 
  -382.223907110   0.000284470656 (    0.07)
CI-ITERATION   9: 
  -382.223907140   0.000128093995 (    0.07)
CI-ITERATION  10: 
  -382.223907145   0.000064556740 (    0.12)
CI-ITERATION  11: 
  -382.223907147   0.000036457032 (    0.07)
   CI-PROBLEM SOLVED
   DENSITIES MADE
   E(CAS)=  -382.223907147 Eh DE=   -1.376927e-04
   --- Energy gap subspaces: Ext-Act = -0.220   Act-Int = -0.104
   N(occ)=  1.96258 1.96364 1.93343 1.92488 1.89421 1.26307 0.75251 0.10793 0.07631 0.06484 0.03532 0.01273 0.00854
   ||g|| =     1.184576e-02 Max(G)=   -2.558606e-03 Rot=27,13
   --- Orbital Update [SuperCI(PT)]
   --- Canonicalize Internal Space
   --- Canonicalize External Space
   --- SX_PT (Skipped TA=0 IT=0): ||X|| =      0.104368186 Max(X)(28,25) =      0.033681651 
   --- SFit(Active Orbitals)

MACRO-ITERATION   9: 
   --- Inactive Energy E0 = -360.84390032 Eh
CI-ITERATION   0: 
  -382.176786708   0.258988855628 (    0.07)
CI-ITERATION   1: 
  -382.218393353   0.085177488066 (    0.07)
CI-ITERATION   2: 
  -382.222511185   0.038765911873 (    0.07)
CI-ITERATION   3: 
  -382.223266598   0.017510150607 (    0.07)
CI-ITERATION   4: 
  -382.223390885   0.007686853375 (    0.07)
CI-ITERATION   5: 
  -382.223412440   0.003386883969 (    0.07)
CI-ITERATION   6: 
  -382.223416609   0.001510547426 (    0.07)
CI-ITERATION   7: 
  -382.223417424   0.000660153344 (    0.07)
CI-ITERATION   8: 
  -382.223417588   0.000277301715 (    0.07)
CI-ITERATION   9: 
  -382.223417616   0.000124446973 (    0.07)
CI-ITERATION  10: 
  -382.223417620   0.000062661580 (    0.12)
CI-ITERATION  11: 
  -382.223417623   0.000035095912 (    0.07)
   CI-PROBLEM SOLVED
   DENSITIES MADE
   E(CAS)=  -382.223417623 Eh DE=    4.895248e-04
   --- Energy gap subspaces: Ext-Act = -0.215   Act-Int = -0.101
   N(occ)=  1.96284 1.96389 1.93349 1.92475 1.89417 1.26352 0.75211 0.10788 0.07650 0.06480 0.03509 0.01239 0.00857
   ||g|| =     1.404258e-02 Max(G)=    3.039577e-03 Rot=35,25
   --- Orbital Update [SuperCI(PT)]
   --- Canonicalize Internal Space
   --- Canonicalize External Space
   --- SX_PT (Skipped TA=0 IT=0): ||X|| =      0.092694791 Max(X)(65,38) =      0.028680897 
   --- SFit(Active Orbitals)

MACRO-ITERATION  10: 
   --- Inactive Energy E0 = -360.81780220 Eh
CI-ITERATION   0: 
  -382.176402200   0.262562225865 (    0.08)
CI-ITERATION   1: 
  -382.218758353   0.086001271310 (    0.07)
CI-ITERATION   2: 
  -382.222957872   0.039303868320 (    0.07)
CI-ITERATION   3: 
  -382.223733625   0.017719955446 (    0.07)
CI-ITERATION   4: 
  -382.223860526   0.007770442774 (    0.07)
CI-ITERATION   5: 
  -382.223882510   0.003452986991 (    0.07)
CI-ITERATION   6: 
  -382.223886842   0.001555116328 (    0.07)
CI-ITERATION   7: 
  -382.223887707   0.000687061526 (    0.07)
CI-ITERATION   8: 
  -382.223887885   0.000290553099 (    0.07)
CI-ITERATION   9: 
  -382.223887916   0.000132224984 (    0.07)
CI-ITERATION  10: 
  -382.223887922   0.000066953698 (    0.12)
CI-ITERATION  11: 
  -382.223887924   0.000038099714 (    0.07)
   CI-PROBLEM SOLVED
   DENSITIES MADE
   E(CAS)=  -382.223887924 Eh DE=   -4.703016e-04
   --- Energy gap subspaces: Ext-Act = -0.226   Act-Int = -0.106
   N(occ)=  1.96248 1.96354 1.93368 1.92427 1.89459 1.26254 0.75314 0.10760 0.07691 0.06454 0.03541 0.01275 0.00856
   ||g|| =     9.774059e-03 Max(G)=   -2.491443e-03 Rot=27,13
   --- Orbital Update [SuperCI(PT)]
   --- Canonicalize Internal Space
   --- Canonicalize External Space
   --- SX_PT (Skipped TA=0 IT=0): ||X|| =      0.089371763 Max(X)(65,38) =     -0.028618775 
   --- SFit(Active Orbitals)

MACRO-ITERATION  11: 
   --- Inactive Energy E0 = -360.82266993 Eh
CI-ITERATION   0: 
  -382.176430580   0.261794803126 (    0.07)
CI-ITERATION   1: 
  -382.218645424   0.085912586464 (    0.07)
CI-ITERATION   2: 
  -382.222846700   0.039243759860 (    0.07)
CI-ITERATION   3: 
  -382.223619935   0.017722234234 (    0.07)
CI-ITERATION   4: 
  -382.223746817   0.007778100476 (    0.08)
CI-ITERATION   5: 
  -382.223768882   0.003454219738 (    0.07)
CI-ITERATION   6: 
  -382.223773208   0.001558025561 (    0.07)
CI-ITERATION   7: 
  -382.223774076   0.000687928041 (    0.07)
CI-ITERATION   8: 
  -382.223774255   0.000291466446 (    0.07)
CI-ITERATION   9: 
  -382.223774286   0.000132694139 (    0.07)
CI-ITERATION  10: 
  -382.223774291   0.000067249006 (    0.12)
CI-ITERATION  11: 
  -382.223774294   0.000038250595 (    0.07)
   CI-PROBLEM SOLVED
   DENSITIES MADE
   E(CAS)=  -382.223774294 Eh DE=    1.136305e-04
   --- Energy gap subspaces: Ext-Act = -0.224   Act-Int = -0.104
   N(occ)=  1.96257 1.96351 1.93369 1.92424 1.89455 1.26270 0.75298 0.10762 0.07695 0.06453 0.03545 0.01262 0.00859
   ||g|| =     9.266842e-03 Max(G)=   -2.468275e-03 Rot=27,13
   --- Orbital Update [SuperCI(PT)]
   --- Canonicalize Internal Space
   --- Canonicalize External Space
   --- SX_PT (Skipped TA=0 IT=0): ||X|| =      0.087991756 Max(X)(65,38) =     -0.028062829 
   --- SFit(Active Orbitals)

MACRO-ITERATION  12: 
   --- Inactive Energy E0 = -360.82191063 Eh
CI-ITERATION   0: 
  -382.174636791   0.260362120142 (    0.07)
CI-ITERATION   1: 
  -382.217333879   0.089349760723 (    0.07)
CI-ITERATION   2: 
  -382.221909627   0.041769342660 (    0.07)
CI-ITERATION   3: 
  -382.222728571   0.020870741711 (    0.07)
CI-ITERATION   4: 
  -382.222889502   0.009433668963 (    0.07)
CI-ITERATION   5: 
  -382.222922840   0.003941151926 (    0.07)
CI-ITERATION   6: 
  -382.222928669   0.001722703617 (    0.07)
CI-ITERATION   7: 
  -382.222929726   0.000794119034 (    0.07)
CI-ITERATION   8: 
  -382.222929946   0.000366207340 (    0.07)
CI-ITERATION   9: 
  -382.222929993   0.000158895178 (    0.07)
CI-ITERATION  10: 
  -382.222930002   0.000082245841 (    0.12)
CI-ITERATION  11: 
  -382.222930005   0.000048135337 (    0.07)
   CI-PROBLEM SOLVED
   DENSITIES MADE
   E(CAS)=  -382.222930005 Eh DE=    8.442889e-04
   --- Energy gap subspaces: Ext-Act = -0.208   Act-Int = -0.095
   N(occ)=  1.96270 1.96252 1.93441 1.92301 1.89464 1.26082 0.75559 0.10760 0.07810 0.06383 0.03640 0.01116 0.00922
   ||g|| =     1.761947e-02 Max(G)=    2.716547e-03 Rot=38,13
   --- Orbital Update [SuperCI(PT)]
   --- Canonicalize Internal Space
   --- Canonicalize External Space
   --- SX_PT (Skipped TA=0 IT=0): ||X|| =      0.057167612 Max(X)(65,38) =     -0.012105527 
   --- SFit(Active Orbitals)

MACRO-ITERATION  13: 
   --- Inactive Energy E0 = -360.85639730 Eh
CI-ITERATION   0: 
  -382.175156415   0.258067716364 (    0.07)
CI-ITERATION   1: 
  -382.217396307   0.088138181177 (    0.07)
CI-ITERATION   2: 
  -382.221872033   0.041099062964 (    0.07)
CI-ITERATION   3: 
  -382.222674965   0.020387516264 (    0.07)
CI-ITERATION   4: 
  -382.222829398   0.009217963863 (    0.07)
CI-ITERATION   5: 
  -382.222861339   0.003824601808 (    0.07)
CI-ITERATION   6: 
  -382.222866886   0.001659432136 (    0.07)
CI-ITERATION   7: 
  -382.222867872   0.000757610241 (    0.07)
CI-ITERATION   8: 
  -382.222868072   0.000347617478 (    0.07)
CI-ITERATION   9: 
  -382.222868114   0.000148775433 (    0.07)
CI-ITERATION  10: 
  -382.222868122   0.000076289709 (    0.12)
CI-ITERATION  11: 
  -382.222868124   0.000044030345 (    0.07)
   CI-PROBLEM SOLVED
   DENSITIES MADE
   E(CAS)=  -382.222868124 Eh DE=    6.188049e-05
   --- Energy gap subspaces: Ext-Act = -0.199   Act-Int = -0.092
   N(occ)=  1.96296 1.96284 1.93398 1.92329 1.89410 1.26205 0.75412 0.10809 0.07788 0.06426 0.03612 0.01089 0.00942
   ||g|| =     1.126965e-02 Max(G)=    1.505102e-03 Rot=29,25
   --- Orbital Update [SuperCI(PT)]
   --- Canonicalize Internal Space
   --- Canonicalize External Space
   --- SX_PT (Skipped TA=0 IT=0): ||X|| =      0.042808397 Max(X)(66,38) =     -0.011624256 
   --- SFit(Active Orbitals)

MACRO-ITERATION  14: 
   --- Inactive Energy E0 = -360.80838457 Eh
CI-ITERATION   0: 
  -382.174351088   0.262556837395 (    0.07)
CI-ITERATION   1: 
  -382.217445893   0.089243573351 (    0.11)
CI-ITERATION   2: 
  -382.222021525   0.042135686217 (    0.07)
CI-ITERATION   3: 
  -382.222854701   0.021115305686 (    0.07)
CI-ITERATION   4: 
  -382.223018554   0.009439173342 (    0.08)
CI-ITERATION   5: 
  -382.223052074   0.003924435104 (    0.07)
CI-ITERATION   6: 
  -382.223057873   0.001726861515 (    0.07)
CI-ITERATION   7: 
  -382.223058934   0.000794710058 (    0.09)
CI-ITERATION   8: 
  -382.223059155   0.000364656977 (    0.07)
CI-ITERATION   9: 
  -382.223059203   0.000156986347 (    0.08)
CI-ITERATION  10: 
  -382.223059211   0.000081304367 (    0.12)
CI-ITERATION  11: 
  -382.223059214   0.000047771509 (    0.07)
   CI-PROBLEM SOLVED
   DENSITIES MADE
   E(CAS)=  -382.223059214 Eh DE=   -1.910898e-04
   --- Energy gap subspaces: Ext-Act = -0.211   Act-Int = -0.096
   N(occ)=  1.96229 1.96233 1.93466 1.92270 1.89489 1.25724 0.75942 0.10748 0.07827 0.06358 0.03658 0.01125 0.00932
   ||g|| =     9.794383e-03 Max(G)=   -1.452511e-03 Rot=27,26
   --- Orbital Update [SuperCI(PT)]
   --- Canonicalize Internal Space
   --- Canonicalize External Space
   --- SX_PT (Skipped TA=0 IT=0): ||X|| =      0.042809082 Max(X)(27,17) =     -0.010794956 
   --- SFit(Active Orbitals)

MACRO-ITERATION  15: 
   --- Inactive Energy E0 = -360.81829613 Eh
CI-ITERATION   0: 
  -382.174554606   0.260552897924 (    0.08)
CI-ITERATION   1: 
  -382.217313877   0.089223114394 (    0.07)
CI-ITERATION   2: 
  -382.221919757   0.042159122868 (    0.07)
CI-ITERATION   3: 
  -382.222750247   0.021221691217 (    0.07)
CI-ITERATION   4: 
  -382.222915489   0.009505451644 (    0.07)
CI-ITERATION   5: 
  -382.222949481   0.003979218496 (    0.07)
CI-ITERATION   6: 
  -382.222955390   0.001750165098 (    0.08)
CI-ITERATION   7: 
  -382.222956485   0.000807976874 (    0.07)
CI-ITERATION   8: 
  -382.222956714   0.000374508525 (    0.07)
CI-ITERATION   9: 
  -382.222956764   0.000163322133 (    0.07)
CI-ITERATION  10: 
  -382.222956773   0.000085326286 (    0.12)
CI-ITERATION  11: 
  -382.222956777   0.000050638805 (    0.07)
CI-ITERATION  12: 
  -382.222956778   0.000026319800 (    0.07)
   CI-PROBLEM SOLVED
   DENSITIES MADE
   E(CAS)=  -382.222956778 Eh DE=    1.024364e-04
   --- Energy gap subspaces: Ext-Act = -0.198   Act-Int = -0.092
   N(occ)=  1.96239 1.96214 1.93463 1.92239 1.89451 1.25767 0.75902 0.10782 0.07863 0.06361 0.03679 0.01052 0.00989
   ||g|| =     2.992218e-03 Max(G)=    4.697354e-04 Rot=38,13
   --- Orbital Update [SuperCI(PT)]
   --- Canonicalize Internal Space
   --- Canonicalize External Space
   --- SX_PT (Skipped TA=0 IT=0): ||X|| =      0.023137247 Max(X)(79,39) =     -0.007044622 
   --- SFit(Active Orbitals)

MACRO-ITERATION  16: 
   --- Inactive Energy E0 = -360.81764218 Eh
CI-ITERATION   0: 
  -382.174581602   0.260368733590 (    0.07)
CI-ITERATION   1: 
  -382.217322960   0.089218121524 (    0.07)
CI-ITERATION   2: 
  -382.221931771   0.042173992257 (    0.07)
CI-ITERATION   3: 
  -382.222762450   0.021242592852 (    0.07)
CI-ITERATION   4: 
  -382.222927997   0.009519104042 (    0.07)
CI-ITERATION   5: 
  -382.222962083   0.003988395887 (    0.07)
CI-ITERATION   6: 
  -382.222968016   0.001753944314 (    0.07)
CI-ITERATION   7: 
  -382.222969116   0.000809989585 (    0.07)
CI-ITERATION   8: 
  -382.222969346   0.000375806512 (    0.07)
CI-ITERATION   9: 
  -382.222969397   0.000164154258 (    0.07)
CI-ITERATION  10: 
  -382.222969406   0.000085826486 (    0.12)
CI-ITERATION  11: 
  -382.222969409   0.000050995936 (    0.07)
CI-ITERATION  12: 
  -382.222969410   0.000026509695 (    0.07)
   CI-PROBLEM SOLVED
   DENSITIES MADE
   E(CAS)=  -382.222969410 Eh DE=   -1.263243e-05
   --- Energy gap subspaces: Ext-Act = -0.197   Act-Int = -0.091
   N(occ)=  1.96238 1.96213 1.93461 1.92237 1.89444 1.25772 0.75899 0.10788 0.07866 0.06363 0.03680 0.01041 0.00998
   ||g|| =     3.289827e-03 Max(G)=    6.509671e-04 Rot=38,13
   --- Orbital Update [SuperCI(PT)]
   --- Canonicalize Internal Space
   --- Canonicalize External Space
   --- SX_PT (Skipped TA=0 IT=0): ||X|| =      0.026283174 Max(X)(79,39) =     -0.006494383 
   --- SFit(Active Orbitals)

MACRO-ITERATION  17: 
   --- Inactive Energy E0 = -360.81703068 Eh
CI-ITERATION   0: 
  -382.174574847   0.260406048661 (    0.08)
CI-ITERATION   1: 
  -382.217325401   0.089211177221 (    0.07)
CI-ITERATION   2: 
  -382.221933421   0.042185161741 (    0.07)
CI-ITERATION   3: 
  -382.222764467   0.021251556169 (    0.07)
CI-ITERATION   4: 
  -382.222930122   0.009521829555 (    0.07)
CI-ITERATION   5: 
  -382.222964225   0.003989752166 (    0.07)
CI-ITERATION   6: 
  -382.222970162   0.001754876062 (    0.07)
CI-ITERATION   7: 
  -382.222971263   0.000810535058 (    0.07)
CI-ITERATION   8: 
  -382.222971493   0.000376068677 (    0.07)
CI-ITERATION   9: 
  -382.222971544   0.000164263642 (    0.07)
CI-ITERATION  10: 
  -382.222971553   0.000085893734 (    0.12)
CI-ITERATION  11: 
  -382.222971557   0.000051050817 (    0.07)
CI-ITERATION  12: 
  -382.222971558   0.000026538619 (    0.07)
   CI-PROBLEM SOLVED
   DENSITIES MADE
   E(CAS)=  -382.222971558 Eh DE=   -2.147416e-06
   --- Energy gap subspaces: Ext-Act = -0.197   Act-Int = -0.091
   N(occ)=  1.96238 1.96212 1.93461 1.92236 1.89445 1.25765 0.75906 0.10787 0.07866 0.06363 0.03681 0.01041 0.00998
   ||g|| =     3.342646e-03 Max(G)=    5.941969e-04 Rot=38,13
   --- Orbital Update [SuperCI(PT)]
   --- Canonicalize Internal Space
   --- Canonicalize External Space
   --- SX_PT (Skipped TA=0 IT=0): ||X|| =      0.025131250 Max(X)(79,39) =     -0.006033937 
   --- SFit(Active Orbitals)

MACRO-ITERATION  18: 
   --- Inactive Energy E0 = -360.82290392 Eh
CI-ITERATION   0: 
  -382.174612322   0.260451967959 (    0.08)
CI-ITERATION   1: 
  -382.217378959   0.088923786770 (    0.07)
CI-ITERATION   2: 
  -382.221944168   0.042016510620 (    0.07)
CI-ITERATION   3: 
  -382.222772861   0.021109557130 (    0.07)
CI-ITERATION   4: 
  -382.222936713   0.009458743192 (    0.07)
CI-ITERATION   5: 
  -382.222970383   0.003944752295 (    0.08)
CI-ITERATION   6: 
  -382.222976228   0.001731529799 (    0.07)
CI-ITERATION   7: 
  -382.222977297   0.000797332164 (    0.07)
CI-ITERATION   8: 
  -382.222977518   0.000367489657 (    0.07)
CI-ITERATION   9: 
  -382.222977566   0.000158473525 (    0.07)
CI-ITERATION  10: 
  -382.222977575   0.000082209320 (    0.13)
CI-ITERATION  11: 
  -382.222977578   0.000048419289 (    0.07)
   CI-PROBLEM SOLVED
   DENSITIES MADE
   E(CAS)=  -382.222977578 Eh DE=   -6.020353e-06
   --- Energy gap subspaces: Ext-Act = -0.202   Act-Int = -0.093
   N(occ)=  1.96251 1.96229 1.93449 1.92259 1.89446 1.25805 0.75855 0.10788 0.07842 0.06376 0.03663 0.01070 0.00966
   ||g|| =     2.910543e-03 Max(G)=    4.310550e-04 Rot=40,23
   --- Orbital Update [SuperCI(PT)]
   --- Canonicalize Internal Space
   --- Canonicalize External Space
   --- SX_PT (Skipped TA=0 IT=0): ||X|| =      0.007594166 Max(X)(27,13) =     -0.002514027 
   --- SFit(Active Orbitals)

MACRO-ITERATION  19: 
   --- Inactive Energy E0 = -360.82446255 Eh
CI-ITERATION   0: 
  -382.174615623   0.260327007475 (    0.07)
CI-ITERATION   1: 
  -382.217369662   0.088947034835 (    0.07)
CI-ITERATION   2: 
  -382.221940778   0.042054591671 (    0.07)
CI-ITERATION   3: 
  -382.222770326   0.021146441092 (    0.07)
CI-ITERATION   4: 
  -382.222934682   0.009476474164 (    0.07)
CI-ITERATION   5: 
  -382.222968476   0.003955942696 (    0.07)
CI-ITERATION   6: 
  -382.222974348   0.001736893620 (    0.07)
CI-ITERATION   7: 
  -382.222975424   0.000800326176 (    0.07)
CI-ITERATION   8: 
  -382.222975647   0.000369414656 (    0.07)
CI-ITERATION   9: 
  -382.222975696   0.000159577991 (    0.13)
CI-ITERATION  10: 
  -382.222975704   0.000082885005 (    0.12)
CI-ITERATION  11: 
  -382.222975708   0.000048889190 (    0.07)
   CI-PROBLEM SOLVED
   DENSITIES MADE
   E(CAS)=  -382.222975708 Eh DE=    1.870150e-06
   --- Energy gap subspaces: Ext-Act = -0.200   Act-Int = -0.092
   N(occ)=  1.96252 1.96223 1.93451 1.92250 1.89441 1.25809 0.75852 0.10793 0.07851 0.06374 0.03669 0.01061 0.00973
   ||g|| =     1.306609e-03 Max(G)=   -2.263733e-04 Rot=34,25
   --- Orbital Update [SuperCI(PT)]
   --- Canonicalize Internal Space
   --- Canonicalize External Space
   --- SX_PT (Skipped TA=0 IT=0): ||X|| =      0.002708327 Max(X)(27,13) =     -0.000678595 
   --- SFit(Active Orbitals)

MACRO-ITERATION  20: 
   --- Inactive Energy E0 = -360.82485256 Eh
CI-ITERATION   0: 
  -382.174604582   0.260361631209 (    0.07)
CI-ITERATION   1: 
  -382.217366066   0.088967579399 (    0.07)
CI-ITERATION   2: 
  -382.221939955   0.042082621314 (    0.07)
CI-ITERATION   3: 
  -382.222770375   0.021165585466 (    0.07)
CI-ITERATION   4: 
  -382.222934986   0.009483887377 (    0.07)
CI-ITERATION   5: 
  -382.222968832   0.003959971177 (    0.07)
CI-ITERATION   6: 
  -382.222974715   0.001739198187 (    0.07)
CI-ITERATION   7: 
  -382.222975794   0.000801732913 (    0.07)
CI-ITERATION   8: 
  -382.222976018   0.000370292782 (    0.07)
CI-ITERATION   9: 
  -382.222976067   0.000160016846 (    0.07)
CI-ITERATION  10: 
  -382.222976075   0.000083145535 (    0.12)
CI-ITERATION  11: 
  -382.222976079   0.000049076244 (    0.07)
   CI-PROBLEM SOLVED
   DENSITIES MADE
   E(CAS)=  -382.222976079 Eh DE=   -3.709911e-07
   --- Energy gap subspaces: Ext-Act = -0.199   Act-Int = -0.092
   N(occ)=  1.96251 1.96219 1.93453 1.92245 1.89439 1.25800 0.75861 0.10796 0.07856 0.06372 0.03673 0.01060 0.00974
   ||g|| =     7.299100e-04 Max(G)=    1.174640e-04 Rot=34,25
   --- Orbital Update [SuperCI(PT)]
   --- Canonicalize Internal Space
   --- Canonicalize External Space
   --- SX_PT (Skipped TA=0 IT=0): ||X|| =      0.002235950 Max(X)(27,13) =     -0.000485630 
   --- SFit(Active Orbitals)

MACRO-ITERATION  21: 
   --- Inactive Energy E0 = -360.82614397 Eh
CI-ITERATION   0: 
  -382.174605088   0.260353980981 (    0.08)
CI-ITERATION   1: 
  -382.217364193   0.088981996477 (    0.10)
CI-ITERATION   2: 
  -382.221939776   0.042093850451 (    0.07)
CI-ITERATION   3: 
  -382.222770558   0.021172356795 (    0.07)
CI-ITERATION   4: 
  -382.222935273   0.009487709533 (    0.07)
CI-ITERATION   5: 
  -382.222969146   0.003961943433 (    0.07)
CI-ITERATION   6: 
  -382.222975036   0.001740190528 (    0.07)
CI-ITERATION   7: 
  -382.222976116   0.000802353368 (    0.07)
CI-ITERATION   8: 
  -382.222976340   0.000370725592 (    0.07)
CI-ITERATION   9: 
  -382.222976389   0.000160234056 (    0.07)
CI-ITERATION  10: 
  -382.222976398   0.000083274507 (    0.12)
CI-ITERATION  11: 
  -382.222976401   0.000049159122 (    0.07)
   CI-PROBLEM SOLVED
   DENSITIES MADE
   E(CAS)=  -382.222976401 Eh DE=   -3.222547e-07
   --- Energy gap subspaces: Ext-Act = -0.199   Act-Int = -0.092
   N(occ)=  1.96252 1.96216 1.93453 1.92242 1.89436 1.25801 0.75861 0.10799 0.07859 0.06372 0.03676 0.01060 0.00974
   ||g|| =     7.523426e-04 Max(G)=   -1.100314e-04 Rot=34,25
   --- Orbital Update [SuperCI(PT)]
   --- Canonicalize Internal Space
   --- Canonicalize External Space
   --- SX_PT (Skipped TA=0 IT=0): ||X|| =      0.001768907 Max(X)(27,13) =     -0.000458533 
   --- SFit(Active Orbitals)

MACRO-ITERATION  22: 
   --- Inactive Energy E0 = -360.82715271 Eh
CI-ITERATION   0: 
  -382.174606878   0.260313833923 (    0.08)
CI-ITERATION   1: 
  -382.217360407   0.088999219063 (    0.07)
CI-ITERATION   2: 
  -382.221939068   0.042111781398 (    0.07)
CI-ITERATION   3: 
  -382.222770316   0.021186634152 (    0.07)
CI-ITERATION   4: 
  -382.222935238   0.009494902293 (    0.07)
CI-ITERATION   5: 
  -382.222969164   0.003966276628 (    0.07)
CI-ITERATION   6: 
  -382.222975064   0.001742332005 (    0.07)
CI-ITERATION   7: 
  -382.222976147   0.000803604163 (    0.07)
CI-ITERATION   8: 
  -382.222976372   0.000371546121 (    0.07)
CI-ITERATION   9: 
  -382.222976422   0.000160688362 (    0.07)
CI-ITERATION  10: 
  -382.222976430   0.000083548439 (    0.12)
CI-ITERATION  11: 
  -382.222976433   0.000049345427 (    0.07)
   CI-PROBLEM SOLVED
   DENSITIES MADE
   E(CAS)=  -382.222976433 Eh DE=   -3.237778e-08
   --- Energy gap subspaces: Ext-Act = -0.199   Act-Int = -0.092
   N(occ)=  1.96252 1.96213 1.93454 1.92238 1.89432 1.25802 0.75861 0.10802 0.07864 0.06372 0.03679 0.01057 0.00976
   ||g|| =     2.256881e-04 Max(G)=    4.472291e-05 Rot=41,35
                     ---- THE CAS-SCF GRADIENT HAS CONVERGED ----
                            --- FINALIZING ORBITALS ---
                    ---- DOING ONE FINAL ITERATION FOR PRINTING ----
   --- Canonicalize Internal Space
   --- Canonicalize External Space

MACRO-ITERATION  23: 
   --- Inactive Energy E0 = -360.82715272 Eh
   --- All densities will be recomputed
CI-ITERATION   0: 
  -382.181167994   0.249226689546 (    0.07)
CI-ITERATION   1: 
  -382.219358118   0.073757082117 (    0.07)
CI-ITERATION   2: 
  -382.222375135   0.031702882941 (    0.07)
CI-ITERATION   3: 
  -382.222864030   0.015279920363 (    0.07)
CI-ITERATION   4: 
  -382.222955724   0.006779161583 (    0.07)
CI-ITERATION   5: 
  -382.222972907   0.002864815747 (    0.07)
CI-ITERATION   6: 
  -382.222975802   0.001220888679 (    0.07)
CI-ITERATION   7: 
  -382.222976320   0.000517083486 (    0.07)
CI-ITERATION   8: 
  -382.222976415   0.000225740156 (    0.07)
CI-ITERATION   9: 
  -382.222976432   0.000100593528 (    0.07)
CI-ITERATION  10: 
  -382.222976436   0.000052829906 (    0.12)
CI-ITERATION  11: 
  -382.222976437   0.000029858413 (    0.07)
   CI-PROBLEM SOLVED
   DENSITIES MADE
   E(CAS)=  -382.222976437 Eh DE=   -3.470177e-09
   --- Energy gap subspaces: Ext-Act = -0.621   Act-Int = -0.164
   N(occ)=  1.98108 1.96344 1.93720 1.92067 1.89357 1.26112 0.74008 0.10927 0.08200 0.05921 0.03516 0.01046 0.00673
   ||g|| =     2.260532e-04 Max(G)=   -3.803085e-05 Rot=30,25
--------------
CASSCF RESULTS
--------------

Final CASSCF energy       : -382.222976437 Eh  -10400.8160 eV

----------------
ORBITAL ENERGIES
----------------

  NO   OCC          E(Eh)            E(eV) 
   0   2.0000     -11.246209      -306.0249 
   1   2.0000     -11.246074      -306.0212 
   2   2.0000     -11.243824      -305.9600 
   3   2.0000     -11.243501      -305.9512 
   4   2.0000     -11.242558      -305.9256 
   5   2.0000     -11.242409      -305.9215 
   6   2.0000     -11.237826      -305.7968 
   7   2.0000     -11.236731      -305.7670 
   8   2.0000     -11.235765      -305.7407 
   9   2.0000     -11.219597      -305.3007 
  10   2.0000      -1.186204       -32.2782 
  11   2.0000      -1.112002       -30.2591 
  12   2.0000      -1.059908       -28.8416 
  13   2.0000      -1.016666       -27.6649 
  14   2.0000      -0.967700       -26.3324 
  15   2.0000      -0.862458       -23.4687 
  16   2.0000      -0.847155       -23.0523 
  17   2.0000      -0.732911       -19.9435 
  18   2.0000      -0.699555       -19.0359 
  19   2.0000      -0.692884       -18.8543 
  20   2.0000      -0.656356       -17.8604 
  21   2.0000      -0.612044       -16.6546 
  22   2.0000      -0.582918       -15.8620 
  23   2.0000      -0.572954       -15.5909 
  24   2.0000      -0.545339       -14.8394 
  25   2.0000      -0.502826       -13.6826 
  26   2.0000      -0.497699       -13.5431 
  27   1.9811      -0.662128       -18.0174 
  28   1.9634      -0.438627       -11.9356 
  29   1.9372      -0.426613       -11.6087 
  30   1.9207      -0.321777        -8.7560 
  31   1.8936      -0.295502        -8.0410 
  32   1.2611      -0.188402        -5.1267 
  33   0.7401      -0.092474        -2.5163 
  34   0.1093       0.118639         3.2283 
  35   0.0820       0.131386         3.5752 
  36   0.0592       0.295211         8.0331 
  37   0.0352       0.301448         8.2028 
  38   0.0105       0.777981        21.1699 
  39   0.0067       0.782532        21.2938 
  40   0.0000       0.161187         4.3861 
  41   0.0000       0.170000         4.6259 
  42   0.0000       0.193117         5.2550 
  43   0.0000       0.197962         5.3868 
  44   0.0000       0.200823         5.4647 
  45   0.0000       0.240866         6.5543 
  46   0.0000       0.265895         7.2354 
  47   0.0000       0.272712         7.4209 
  48   0.0000       0.273744         7.4490 
  49   0.0000       0.275341         7.4924 
  50   0.0000       0.297921         8.1068 
  51   0.0000       0.320211         8.7134 
  52   0.0000       0.320325         8.7165 
  53   0.0000       0.326637         8.8883 
  54   0.0000       0.334938         9.1141 
  55   0.0000       0.347901         9.4669 
  56   0.0000       0.358776         9.7628 
  57   0.0000       0.361143         9.8272 
  58   0.0000       0.378157        10.2902 
  59   0.0000       0.398131        10.8337 
  60   0.0000       0.399237        10.8638 
  61   0.0000       0.400567        10.9000 
  62   0.0000       0.410783        11.1780 
  63   0.0000       0.426816        11.6143 
  64   0.0000       0.450529        12.2595 
  65   0.0000       0.471365        12.8265 
  66   0.0000       0.471391        12.8272 
  67   0.0000       0.479428        13.0459 
  68   0.0000       0.496175        13.5016 
  69   0.0000       0.497052        13.5255 
  70   0.0000       0.503174        13.6921 
  71   0.0000       0.515101        14.0166 
  72   0.0000       0.522589        14.2204 
  73   0.0000       0.526548        14.3281 
  74   0.0000       0.548594        14.9280 
  75   0.0000       0.558424        15.1955 
  76   0.0000       0.568062        15.4577 
  77   0.0000       0.585821        15.9410 
  78   0.0000       0.588640        16.0177 
  79   0.0000       0.595174        16.1955 
  80   0.0000       0.600394        16.3375 
  81   0.0000       0.621380        16.9086 
  82   0.0000       0.640914        17.4401 
  83   0.0000       0.648779        17.6542 
  84   0.0000       0.665995        18.1226 
  85   0.0000       0.674788        18.3619 
  86   0.0000       0.692086        18.8326 
  87   0.0000       0.706862        19.2347 
  88   0.0000       0.709053        19.2943 
  89   0.0000       0.714072        19.4309 
  90   0.0000       0.728772        19.8309 
  91   0.0000       0.731195        19.8968 
  92   0.0000       0.775661        21.1068 
  93   0.0000       0.817273        22.2391 
  94   0.0000       0.819541        22.3008 
  95   0.0000       0.842437        22.9239 
  96   0.0000       0.849698        23.1214 
  97   0.0000       0.860932        23.4271 
  98   0.0000       0.883105        24.0305 
  99   0.0000       0.891522        24.2596 
 100   0.0000       0.906905        24.6782 
 101   0.0000       0.919086        25.0096 
 102   0.0000       0.930302        25.3148 
 103   0.0000       0.938743        25.5445 
 104   0.0000       0.970318        26.4037 
 105   0.0000       0.972126        26.4529 
 106   0.0000       0.982609        26.7381 
 107   0.0000       0.998455        27.1693 
 108   0.0000       1.010536        27.4981 
 109   0.0000       1.032365        28.0921 
 110   0.0000       1.038250        28.2522 
 111   0.0000       1.078133        29.3375 
 112   0.0000       1.091172        29.6923 
 113   0.0000       1.106931        30.1211 
 114   0.0000       1.108332        30.1592 
 115   0.0000       1.112943        30.2847 
 116   0.0000       1.158550        31.5257 
 117   0.0000       1.185160        32.2498 
 118   0.0000       1.202755        32.7286 
 119   0.0000       1.208593        32.8875 
 120   0.0000       1.212453        32.9925 
 121   0.0000       1.215184        33.0668 
 122   0.0000       1.266244        34.4563 
 123   0.0000       1.319729        35.9117 
 124   0.0000       1.319792        35.9134 
 125   0.0000       1.348403        36.6919 
 126   0.0000       1.353982        36.8437 
 127   0.0000       1.385244        37.6944 
 128   0.0000       1.407222        38.2925 
 129   0.0000       1.420326        38.6490 
 130   0.0000       1.424569        38.7645 
 131   0.0000       1.444067        39.2951 
 132   0.0000       1.447773        39.3959 
 133   0.0000       1.471559        40.0431 
 134   0.0000       1.485113        40.4120 
 135   0.0000       1.488093        40.4931 
 136   0.0000       1.501714        40.8637 
 137   0.0000       1.515979        41.2519 
 138   0.0000       1.516697        41.2714 
 139   0.0000       1.553962        42.2855 
 140   0.0000       1.580185        42.9990 
 141   0.0000       1.600253        43.5451 
 142   0.0000       1.620694        44.1013 
 143   0.0000       1.670429        45.4547 
 144   0.0000       1.672682        45.5160 
 145   0.0000       1.695591        46.1394 
 146   0.0000       1.699069        46.2340 
 147   0.0000       1.732065        47.1319 
 148   0.0000       1.746828        47.5336 
 149   0.0000       1.759410        47.8760 
 150   0.0000       1.770515        48.1782 
 151   0.0000       1.791633        48.7528 
 152   0.0000       1.799231        48.9596 
 153   0.0000       1.801595        49.0239 
 154   0.0000       1.816013        49.4162 
 155   0.0000       1.817625        49.4601 
 156   0.0000       1.838082        50.0167 
 157   0.0000       1.874238        51.0006 
 158   0.0000       1.877258        51.0828 
 159   0.0000       1.930616        52.5347 
 160   0.0000       1.932464        52.5850 
 161   0.0000       1.956961        53.2516 
 162   0.0000       1.976638        53.7871 
 163   0.0000       1.981002        53.9058 
 164   0.0000       1.989297        54.1315 
 165   0.0000       2.006663        54.6041 
 166   0.0000       2.045919        55.6723 
 167   0.0000       2.058265        56.0082 
 168   0.0000       2.064033        56.1652 
 169   0.0000       2.087219        56.7961 
 170   0.0000       2.139572        58.2207 
 171   0.0000       2.168942        59.0199 
 172   0.0000       2.179504        59.3073 
 173   0.0000       2.207991        60.0825 
 174   0.0000       2.257541        61.4308 
 175   0.0000       2.269342        61.7519 
 176   0.0000       2.291969        62.3676 
 177   0.0000       2.349092        63.9221 
 178   0.0000       2.352904        64.0258 
 179   0.0000       2.356420        64.1214 
 180   0.0000       2.391093        65.0649 
 181   0.0000       2.418090        65.7996 
 182   0.0000       2.463821        67.0440 
 183   0.0000       2.470690        67.2309 
 184   0.0000       2.474313        67.3295 
 185   0.0000       2.498348        67.9835 
 186   0.0000       2.534901        68.9782 
 187   0.0000       2.559239        69.6404 
 188   0.0000       2.570483        69.9464 
 189   0.0000       2.581297        70.2407 
 190   0.0000       2.589071        70.4522 
 191   0.0000       2.602501        70.8176 
 192   0.0000       2.629956        71.5647 
 193   0.0000       2.632798        71.6421 
 194   0.0000       2.705125        73.6102 
 195   0.0000       2.723775        74.1177 
 196   0.0000       2.754930        74.9654 
 197   0.0000       2.777072        75.5680 
 198   0.0000       2.788969        75.8917 
 199   0.0000       2.834797        77.1388 
 200   0.0000       2.857997        77.7701 
 201   0.0000       2.877584        78.3030 
 202   0.0000       2.889880        78.6376 
 203   0.0000       2.896439        78.8161 
 204   0.0000       2.921571        79.5000 
 205   0.0000       2.927983        79.6745 
 206   0.0000       2.946867        80.1883 
 207   0.0000       2.968371        80.7735 
 208   0.0000       2.970559        80.8330 
 209   0.0000       2.983120        81.1748 
 210   0.0000       2.998026        81.5804 
 211   0.0000       3.005263        81.7774 
 212   0.0000       3.015284        82.0500 
 213   0.0000       3.022984        82.2596 
 214   0.0000       3.029558        82.4385 
 215   0.0000       3.049069        82.9694 
 216   0.0000       3.068965        83.5108 
[...]
      f-3     :     0.019651
  6 C s       :     2.823099  s :     2.823099
      pz      :     0.864864  p :     2.735545
      px      :     1.062901
      py      :     0.807780
      dz2     :     0.024923  d :     0.343391
      dxz     :     0.085822
      dyz     :     0.015732
      dx2y2   :     0.107600
      dxy     :     0.109314
      f0      :     0.003940  f :     0.043566
      f+1     :     0.004505
      f-1     :     0.001838
      f+2     :     0.002875
      f-2     :     0.006484
      f+3     :     0.013773
      f-3     :     0.010150
  7 C s       :     2.762870  s :     2.762870
      pz      :     0.888493  p :     2.945322
      px      :     1.043601
      py      :     1.013228
      dz2     :     0.026299  d :     0.392065
      dxz     :     0.044295
      dyz     :     0.050592
      dx2y2   :     0.101719
      dxy     :     0.169160
      f0      :     0.003577  f :     0.043769
      f+1     :     0.003786
      f-1     :     0.003547
      f+2     :     0.008053
      f-2     :     0.001438
      f+3     :     0.011658
      f-3     :     0.011709
  8 C s       :     2.746188  s :     2.746188
      pz      :     0.890432  p :     2.915868
      px      :     1.035489
      py      :     0.989946
      dz2     :     0.027858  d :     0.401252
      dxz     :     0.080964
      dyz     :     0.015848
      dx2y2   :     0.171665
      dxy     :     0.104917
      f0      :     0.003093  f :     0.043591
      f+1     :     0.003916
      f-1     :     0.003361
      f+2     :     0.002210
      f-2     :     0.006282
      f+3     :     0.013169
      f-3     :     0.011561
  9 C s       :     2.761868  s :     2.761868
      pz      :     0.877062  p :     2.924294
      px      :     1.002888
      py      :     1.044344
      dz2     :     0.026044  d :     0.395393
      dxz     :     0.020931
      dyz     :     0.077104
      dx2y2   :     0.150561
      dxy     :     0.120752
      f0      :     0.003270  f :     0.042943
      f+1     :     0.003271
      f-1     :     0.003883
      f+2     :     0.003385
      f-2     :     0.005961
      f+3     :     0.012715
      f-3     :     0.010457
 10 H s       :     0.780830  s :     0.780830
      pz      :     0.022855  p :     0.100259
      px      :     0.041255
      py      :     0.036149
 11 H s       :     0.793105  s :     0.793105
      pz      :     0.014402  p :     0.063308
      px      :     0.011317
      py      :     0.037589
 12 H s       :     0.799063  s :     0.799063
      pz      :     0.013325  p :     0.058954
      px      :     0.023198
      py      :     0.022431
 13 H s       :     0.802853  s :     0.802853
      pz      :     0.012938  p :     0.059142
      px      :     0.033803
      py      :     0.012401
 14 H s       :     0.803240  s :     0.803240
      pz      :     0.013045  p :     0.059212
      px      :     0.021454
      py      :     0.024712
 15 H s       :     0.798568  s :     0.798568
      pz      :     0.013316  p :     0.058946
      px      :     0.034619
      py      :     0.011011


                      *****************************
                      * MAYER POPULATION ANALYSIS *
                      *****************************

  NA   - Mulliken gross atomic population
  ZA   - Total nuclear charge
  QA   - Mulliken gross atomic charge
  VA   - Mayer's total valence
  BVA  - Mayer's bonded valence
  FA   - Mayer's free valence

  ATOM       NA         ZA         QA         VA         BVA        FA
  0 C      6.0860     6.0000    -0.0860     3.9116     3.7535     0.1582
  1 C      6.0763     6.0000    -0.0763     3.9140     2.8959     1.0181
  2 C      6.0443     6.0000    -0.0443     3.9916     3.7936     0.1980
  3 C      6.2022     6.0000    -0.2022     3.9490     3.8418     0.1072
  4 C      6.0660     6.0000    -0.0660     3.9413     3.8684     0.0728
  5 C      5.7665     6.0000     0.2335     3.7349     3.6299     0.1051
  6 C      6.0160     6.0000    -0.0160     3.8482     2.8351     1.0131
  7 C      6.1505     6.0000    -0.1505     3.9734     3.8146     0.1588
  8 C      6.2800     6.0000    -0.2800     3.9776     3.9052     0.0724
  9 C      6.0686     6.0000    -0.0686     3.8674     3.7610     0.1063
 10 H      0.8821     1.0000     0.1179     0.9547     0.9527     0.0020
 11 H      0.8940     1.0000     0.1060     0.9871     0.9850     0.0021
 12 H      0.8664     1.0000     0.1336     0.9707     0.9647     0.0061
 13 H      0.8673     1.0000     0.1327     0.9714     0.9687     0.0027
 14 H      0.8696     1.0000     0.1304     0.9747     0.9721     0.0026
 15 H      0.8643     1.0000     0.1357     0.9691     0.9632     0.0060

  Mayer bond orders larger than 0.100000
B(  0-C ,  1-C ) :   1.5508 B(  0-C ,  3-C ) :   1.2012 B(  0-C , 15-H ) :   0.9764 
B(  1-C ,  2-C ) :   1.2595 B(  2-C ,  5-C ) :   1.2202 B(  2-C ,  6-C ) :   1.2618 
B(  3-C ,  4-C ) :   1.5888 B(  3-C , 14-H ) :   0.9651 B(  4-C ,  5-C ) :   1.2761 
B(  4-C , 10-H ) :   0.9823 B(  5-C ,  8-C ) :   1.2887 B(  6-C ,  7-C ) :   1.5355 
B(  7-C ,  9-C ) :   1.2142 B(  7-C , 12-H ) :   0.9794 B(  8-C ,  9-C ) :   1.5454 
B(  8-C , 11-H ) :   0.9844 B(  9-C , 13-H ) :   0.9702 


-------------------------------------------------------------
 Forming the transition densities       ... done in 0.0 sec
-------------------------------------------------------------
Memory for address arrays  		      ... done
Make address arrays			      ... done
Memory for buffers 			      ... done
Setting up spin-function prototypes	      ... (MAXOPEN=12) 0 2 4 6 8 10 12 14 done
Trivial cases - DOMO's			      ... done (  0.2 MB)
Number of open shells			    ...  0
domo->virtual excitations			... done (  0.2 MB)
domo->somo excitations				... done (  0.2 MB)
somo->virtual excitations			... done (  0.2 MB)
somo->somo excitations				... done (  0.2 MB)
Number of open shells			    ...  2
domo->virtual excitations			... done (  0.2 MB)
domo->somo excitations				... done (  0.2 MB)
somo->virtual excitations			... done (  0.2 MB)
somo->somo excitations				... done (  0.2 MB)
Number of open shells			    ...  4
domo->virtual excitations			... done (  0.2 MB)
domo->somo excitations				... done (  0.2 MB)
somo->virtual excitations			... done (  0.2 MB)
somo->somo excitations				... done (  0.2 MB)
Number of open shells			    ...  6
domo->virtual excitations			... done (  0.2 MB)
domo->somo excitations				... done (  0.2 MB)
somo->virtual excitations			... done (  0.2 MB)
somo->somo excitations				... done (  0.2 MB)
Number of open shells			    ...  8
domo->virtual excitations			... done (  0.2 MB)
domo->somo excitations				... done (  0.2 MB)
somo->virtual excitations			... done (  0.2 MB)
somo->somo excitations				... done (  0.2 MB)
Number of open shells			    ... 10
domo->virtual excitations			... done (  0.2 MB)
domo->somo excitations				... done (  0.2 MB)
somo->virtual excitations			... done (  0.3 MB)
somo->somo excitations				... done (  0.3 MB)
Number of open shells			    ... 12
domo->virtual excitations			... done (  0.7 MB)
domo->somo excitations				... done (  0.8 MB)
somo->virtual excitations			... done (  1.0 MB)
somo->somo excitations				... done (  1.1 MB)
Coupling container construction done

--------------
CASSCF TIMINGS
--------------

Total time                       ...      163.3 sec
Sum of individual times          ...      160.9 sec ( 98.5%)

Calculation of AO operators
   F(Core) operator              ...        5.5 sec (  3.4%)
   G(Act) operator               ...        5.4 sec (  3.3%)
Calculation of MO transformed quantities
   J(MO) operators               ...       20.4 sec ( 12.5%)
   AO->MO one electron integrals ...        0.2 sec (  0.1%)
Configuration interaction steps
   CI-setup phase                ...        1.2 sec (  0.7%)
   CI-solution phase             ...      124.3 sec ( 76.1%)
   Generation of densities       ...        2.0 sec (  1.2%)
Orbital improvement steps
   Orbital gradient              ...        0.5 sec (  0.3%)
   O(1) converger                ...        1.1 sec (  0.7%)
CPCM steps
   Total CPCM time               ...        0.0 sec (  0.0%)
Properties                       ...        0.0 sec (  0.0%)
   SOC integral calculation      ...        0.0 sec (  0.0%)
   SSC RMEs (incl. integrals)    ...        0.0 sec (  0.0%)
   SOC RMEs                      ...        0.0 sec (  0.0%)

Maximum memory used throughout the entire CASSCF-calculation: 269.4 MB


           ************************************************************
           *        Program running with 192 parallel MPI-processes   *
           *              working on a common directory               *
           ************************************************************

------------------------------------------------------------------------------
                         ORCA PROPERTY INTEGRAL CALCULATIONS
------------------------------------------------------------------------------

GBWName                                   ... C10H6.gbw
Number of atoms                           ...     16
Number of basis functions                 ...    346
Max core memory                           ...   3500 MB

Dipole integrals                          ... YES
Quadrupole integrals                      ...  NO
Linear momentum integrals                 ...  NO
Angular momentum integrals                ... YES
Higher moments length integrals           ...  NO
Higher moments velocity integrals         ...  NO
Kinetic energy integrals                  ...  NO
GIAO right hand sides                     ...  NO
GIAO dipole derivative integrals          ...  NO
SOC integrals                             ...  NO
EPR diamagnetic integrals (GIAO)          ...  NO
EPR gauge integrals                       ...  NO
Field gradient integrals                  ...  NO (   0 nuclei)
Spin-dipole/Fermi contact integrals       ...  NO (   0 nuclei)
Contact density integrals                 ...  NO (   0 nuclei)
Nucleus-orbit integrals                   ...  NO (   0 nuclei)
Geometric perturbations                   ...  NO (  16 nuclei)

Choice of electric origin   ... Center of mass
Position of electric origin ... ( -3.2565, -3.0503,  0.0000) 
Choice of magnetic origin   ... GIAO
Position of magnetic origin ... (  0.0000,  0.0000,  0.0000) 

Calculating integrals                     ... Electric Dipole (Length)     done (  0.0 sec)
Calculating integrals                     ... Angular Momentum  (ElOri)    done (  0.0 sec)

Property integrals calculated in   0.0 sec

Maximum memory used throughout the entire PROPINT-calculation: 20.4 MB


           ************************************************************
           *        Program running with 192 parallel MPI-processes   *
           *              working on a common directory               *
           ************************************************************
-------------------------------------------------------------------------------
                              ORCA-CASSCF
-------------------------------------------------------------------------------

Setting up the integral package     ... SharkInputFile = C10H6.SHARKINP.tmpdone


==========================================
CASSCF UV, CD spectra and dipole moments
==========================================

--------------
CASSCF TIMINGS
--------------

Total time                       ...        0.3 sec
Sum of individual times          ...        0.2 sec ( 87.7%)

Calculation of AO operators
Calculation of MO transformed quantities
Configuration interaction steps
   CI-setup phase                ...        0.2 sec ( 87.7%)
Orbital improvement steps

Maximum memory used throughout the entire CASSCF-calculation: 46.4 MB

-------------------------   --------------------
FINAL SINGLE POINT ENERGY      -382.222976436834
-------------------------   --------------------



           ************************************************************
           *        Program running with 192 parallel MPI-processes   *
           *              working on a common directory               *
           ************************************************************

------------------------------------------------------------------------------
                              ORCA PROPERTY CALCULATIONS
------------------------------------------------------------------------------

GBWName                                 ... C10H6.gbw
Number of atoms                         ...     16
Number of basis functions               ...    346
Max core memory                         ...   3500 MB

Electric properties:
Dipole moment                           ... YES
Quadrupole moment                       ...  NO
Static polarizability (Dipole/Dipole)   ...  NO
Static polarizability (Dipole/Quad.)    ...  NO
Static polarizability (Quad./Quad.)     ...  NO
Static polarizability (Velocity)        ...  NO
Static hyperpolarizability              ...  NO

Atomic electric properties:
Dipole moment                           ...  NO
Quadrupole moment                       ...  NO
Static polarizability                   ...  NO

Choice of electric origin               ... Center of mass
Position of electric origin             ...    -3.256501    -3.050284     0.000020

General magnetic properties:
Magnetizability                         ...  NO

EPR properties:
g-Tensor (aka g-matrix)                 ...  NO
Zero-Field splitting spin-orbit         ...  NO
Zero-field splitting spin-spin          ...  NO
Hyperfine couplings                     ...  NO (   0 nuclei)
Quadrupole couplings                    ...  NO (   0 nuclei)
Contact density                         ...  NO (   0 nuclei)

NMR properties:
Chemical shifts                         ...  NO (   0 nuclei)
Spin-rotation constants                 ...  NO (   0 nuclei)
Spin-spin couplings                     ...  NO (   0 nuclei,    0 pairs)

Choice of magnetic origin               ... GIAO
Position of magnetic origin             ...     0.000000     0.000000     0.000000

Properties with geometric perturbations:
SCF Hessian                             ...  NO
IR spectrum                             ...  NO
VCD spectrum                            ...  NO
X-ray spectroscopy properties:
SCF XES/XAS/RIXS spectra                ...  NO

SCF SOC stabilization energy            ...  NO
Diagonal Born-Oppenheimer correction    ...  NO

-------------
DIPOLE MOMENT
-------------

Method             : CASSCF
Type of density    : Electron Density
Level              : Relaxed density
State              :   0
Multiplicity       :   1
Irrep              :   0
Energy             :  -382.2229764368344718 Eh
Basis              : AO
                                X                 Y                 Z
Electronic contribution:     -1.174300861       3.721872937       0.000126786
Nuclear contribution   :      1.345365455      -4.207131112      -0.000146083
                        -----------------------------------------
Total Dipole Moment    :      0.171064594      -0.485258175      -0.000019297
                        -----------------------------------------
Magnitude (a.u.)       :      0.514527543
Magnitude (Debye)      :      1.307825080



--------------------
Rotational spectrum 
--------------------
 
Rotational constants in cm-1:             0.117123             0.041640             0.030719 
Rotational constants in MHz :          3511.261065          1248.341498           920.928342 

Dipole components along the rotational axes: 
x,y,z [a.u.] :     0.040521    -0.512929    -0.000005 
x,y,z [Debye]:     0.102996    -1.303763    -0.000012 

 

Dipole moment calculation done in   0.0 sec 

Maximum memory used throughout the entire PROP-calculation: 17.5 MB

--------------------------------
SUGGESTED CITATIONS FOR THIS RUN
--------------------------------

Below you find a list of papers that are relevant to this ORCA run
We neither can nor want to force you to cite these papers, but we appreciate if you do
You receive ORCA, which is the product of decades of hard work by many enthusiastic individuals, for free
The only thing we kindly ask in return is that you cite our papers,
We deeply appreciate it, if you show your appreciation for ORCA by not just citing the generic ORCA reference.

Please note that relegating all ORCA citations to the supporting information does *not* help us.
SI sections are not indexed - citations you put there will not count into any citation statistics
But we need these citations in order to attract the funding resources that allow us to do what we are doing

Therefore, if you are a happy ORCA user, please consider citing a few of the papers listed below in the main body of your paper

In addition to the list printed below, the program has created the file C10H6.bibtex that contains the list in bibtex format
You can import this file easily into all common literature databanks and citation aid programs


List of essential papers. We consider these as the minimum necessary citations

  1. Neese, F.
     Software update: the ORCA program system, version 6.0
     WIRES Comput. Molec. Sci. 2025 15(1), e70019
     doi.org/10.1002/wcms.7019

List of papers to cite with high priority. The work reported in these papers was absolutely
necessary for this run to complete.
Our perspective: the developers of density functionals and basis sets usually get cited in chemistry papers
Good! But without the algorithms to do something with them, the functionals or basis sets would not do anything.
Hence, in our opinion, the algorithm design and method developments papers are equally worthy of getting cited

  1. Kollmar, C.; Sivalingam, K.; Helmich-Paris, B.; Angeli, C.; Neese, F.
     A perturbation-based super-CI approach for the orbital optimization of a CASSCF wave function
     J. Comput. Chem. 2019 40 , 1463-1470
     doi.org/10.1002/jcc.25801
  2. Neese, F.
     The SHARK Integral Generation and Digestion System
     J. Comp. Chem. 2022 44(3), 381
     doi.org/10.1002/jcc.26942
  3. Ugandi, M.; Roemelt, M.
     A recursive formulation of one-electron coupling coefficients for spin-adapted configuration interaction calculations featuring many unpaired electrons
     Int. J. Quantum Chem. 2023 123 , e27045
     doi.org/10.1002/qua.27045

List of suggested additional citations. These are papers that are important in the 'surrounding' of 
of this run, or papers that preceded the highly important papers. If you like your results we are grateful for a citation.

  1. Neese, F.
     The ORCA program system
     WIRES Comput. Molec. Sci. 2012 2(1), 73-78
     doi.org/10.1002/wcms.81
  2. Neese, F.
     Software update: the ORCA program system, version 4.0
     WIRES Comput. Molec. Sci. 2018 8(1), 1-6
     doi.org/10.1002/wcms.1327
  3. Neese, F.; Wennmohs, F.; Becker, U.; Riplinger, C.
     The ORCA quantum chemistry program package
     J. Chem. Phys. 2020 152(22), 224108
     doi.org/10.1063/5.0004608
  4. Neese, F.
     Software update: The ORCA program system—Version 5.0
     WIRES Comput. Molec. Sci. 2022 12(1), e1606
     doi.org/10.1002/wcms.1606

List of optional additional citations

  1. Neese, F.
     Approximate second-order SCF convergence for spin unrestricted wavefunctions
     Chem. Phys. Lett. 2000 325(1-3), 93-98
     doi.org/10.1016/s0009-2614(00)00662-x

Timings for individual modules:

Sum of individual times          ...      226.926 sec (=   3.782 min)
Startup calculation              ...       11.828 sec (=   0.197 min)   5.2 %
SCF iterations                   ...       10.635 sec (=   0.177 min)   4.7 %
CASSCF iterations                ...      184.068 sec (=   3.068 min)  81.1 %
Property integrals               ...       10.335 sec (=   0.172 min)   4.6 %
Property calculations            ...       10.060 sec (=   0.168 min)   4.4 %
                             ****ORCA TERMINATED NORMALLY****
TOTAL RUN TIME: 0 days 0 hours 3 minutes 57 seconds 23 msec
